 &FCI NORB=31 ,NELEC=32 ,MS2=0,
  ORBSYM=1,3,5,1,2,7,8,6,1,2,5,7,2,4,1,3,4,3,5,2,1,7,1,8,6,2,5,1,2,7,4,
  ISYM=1,
 &END
  4.988692258201e-01    1  1  1  1
  2.645308175449e-01    2  1  2  1
  5.032264138107e-01    2  2  1  1
  5.095617845724e-01    2  2  2  2
  1.317529731619e-03    3  1  3  1
  3.136657676925e-04    3  2  3  2
  3.025370830264e-01    3  3  1  1
  2.923823206451e-01    3  3  2  2
  6.308865453438e-01    3  3  3  3
  3.176259636463e-03    4  1  1  1
  2.652918204729e-03    4  1  2  2
  4.052489289223e-04    4  1  3  3
  1.671008430245e-03    4  1  4  1
 -1.729967731655e-03    4  2  2  1
  5.693437161354e-04    4  2  4  2
 -1.485369568489e-03    4  3  3  1
  2.055011185135e-02    4  3  4  3
  3.074093222499e-01    4  4  1  1
  2.977562666949e-01    4  4  2  2
  5.891242592090e-01    4  4  3  3
  1.747736478867e-03    4  4  4  1
  6.320612166080e-01    4  4  4  4
  1.243646524762e-03    5  1  5  1
  4.285902856652e-04    5  2  5  2
  2.069881608602e-02    5  3  5  3
 -2.192777012359e-05    5  4  5  1
  4.452565575090e-01    5  4  5  4
  3.064210715020e-01    5  5  1  1
  2.967535869470e-01    5  5  2  2
  5.921087685357e-01    5  5  3  3
  1.797132468400e-03    5  5  4  1
  6.353970770716e-01    5  5  4  4
  6.388152143838e-01    5  5  5  5
  5.964897653048e-05    6  1  3  2
  5.896974064178e-04    6  1  6  1
  2.480416390776e-04    6  2  3  1
  7.929129166046e-04    6  2  4  3
  4.426989295968e-04    6  2  6  2
  4.246915834312e-03    6  3  2  1
 -3.095933196660e-05    6  3  4  2
  2.068865022546e-02    6  3  6  3
 -7.406850106963e-04    6  4  3  2
  1.441888448300e-03    6  4  6  1
  2.072395809810e-02    6  4  6  4
  2.091559544054e-02    6  5  6  5
  3.004253259486e-01    6  6  1  1
  2.916505113630e-01    6  6  2  2
  5.896986480088e-01    6  6  3  3
  2.551935050470e-03    6  6  4  1
  5.913921390233e-01    6  6  4  4
  5.943936171315e-01    6  6  5  5
  6.315666157350e-01    6  6  6  6
  1.465400019385e-03    7  1  6  5
  6.445907792393e-04    7  1  7  1
  7.906032010077e-04    7  2  5  3
  4.892197895271e-04    7  2  7  2
  1.344123370344e-05    7  3  5  2
  2.052252770114e-02    7  3  7  3
  2.074695920577e-02    7  4  6  5
  1.393983098515e-03    7  4  7  1
  2.059144945991e-02    7  4  7  4
 -7.288342303129e-04    7  5  3  2
  1.491738381754e-03    7  5  6  1
  2.075721711689e-02    7  5  6  4
  2.079921647705e-02    7  5  7  5
  1.056463144710e-03    7  6  5  1
  4.046779397218e-01    7  6  5  4
  4.447450076331e-01    7  6  7  6
  3.006112295575e-01    7  7  1  1
  2.918689886541e-01    7  7  2  2
  5.877727048395e-01    7  7  3  3
  2.532948214644e-03    7  7  4  1
  5.894755132621e-01    7  7  4  4
  5.924516214406e-01    7  7  5  5
  6.293783633257e-01    7  7  6  6
  6.272067520113e-01    7  7  7  7
  1.497833398318e-03    8  1  5  3
 -2.705110312162e-04    8  1  7  2
  1.237532974631e-03    8  1  8  1
  7.933835524654e-04    8  2  6  5
 -1.061931896073e-04    8  2  7  1
  8.080343306138e-04    8  2  7  4
  3.001285187230e-04    8  2  8  2
  1.432640731572e-03    8  3  5  1
 -4.011864039441e-01    8  3  5  4
 -4.021453460470e-01    8  3  7  6
  4.421315274520e-01    8  3  8  3
 -2.058190278832e-02    8  4  5  3
 -7.607915108488e-04    8  4  7  2
 -1.529215444211e-03    8  4  8  1
  2.047490347661e-02    8  4  8  4
  1.457979306102e-03    8  5  3  1
 -2.066349330296e-02    8  5  4  3
 -8.001376647051e-04    8  5  6  2
  2.078614759918e-02    8  5  8  5
  4.073485657970e-06    8  6  5  2
 -2.060435968748e-02    8  6  7  3
  2.069031542359e-02    8  6  8  6
 -4.852309537338e-03    8  7  2  1
  5.592496513318e-05    8  7  4  2
 -2.065692737009e-02    8  7  6  3
  2.063399661534e-02    8  7  8  7
  3.028001756884e-01    8  8  1  1
  2.926274902426e-01    8  8  2  2
  6.315363403764e-01    8  8  3  3
  4.227296830791e-04    8  8  4  1
  5.897383474079e-01    8  8  4  4
  5.927246187575e-01    8  8  5  5
  5.903454660285e-01    8  8  6  6
  5.884195166561e-01    8  8  7  7
  6.321967779643e-01    8  8  8  8
  5.937970766714e-04    9  1  1  1
  9.794919361990e-04    9  1  2  2
 -6.278961827507e-03    9  1  3  3
 -4.203312642198e-04    9  1  4  1
 -3.644117309675e-03    9  1  4  4
 -3.646669279083e-03    9  1  5  5
 -6.365731261856e-03    9  1  6  6
 -6.327879125048e-03    9  1  7  7
 -6.294180537766e-03    9  1  8  8
  9.386235476575e-04    9  1  9  1
  2.573909604905e-03    9  2  2  1
  3.974459886785e-05    9  2  4  2
 -7.558431662189e-04    9  2  6  3
  7.555575840914e-04    9  2  8  7
  3.754842079371e-04    9  2  9  2
 -9.355631754389e-04    9  3  3  1
  6.252787536984e-03    9  3  4  3
  5.514967542637e-04    9  3  6  2
 -6.293784227731e-03    9  3  8  5
  1.536480766280e-02    9  3  9  3
 -1.312361110044e-03    9  4  1  1
 -5.347115626529e-04    9  4  2  2
 -9.011001559768e-03    9  4  3  3
  1.091055700297e-03    9  4  4  1
  7.706741483543e-04    9  4  4  4
  7.864626914962e-04    9  4  5  5
  1.000398117940e-02    9  4  6  6
  9.941726436398e-03    9  4  7  7
 -9.004598157288e-03    9  4  8  8
 -1.942428081349e-04    9  4  9  1
  2.083196210685e-02    9  4  9  4
  1.312033505923e-03    9  5  5  1
  2.086220296443e-03    9  5  5  4
  1.120044448635e-02    9  5  7  6
  7.759179231151e-03    9  5  8  3
  2.097967843027e-02    9  5  9  5
  5.521096589813e-04    9  6  3  2
 -1.102859512273e-03    9  6  6  1
 -6.765956515958e-03    9  6  6  4
 -6.772436104978e-03    9  6  7  5
  1.614110641341e-02    9  6  9  6
 -6.762409358095e-03    9  7  6  5
 -1.075799015531e-03    9  7  7  1
 -6.717792624374e-03    9  7  7  4
 -5.890986436606e-04    9  7  8  2
  1.603118357048e-02    9  7  9  7
 -6.256689671652e-03    9  8  5  3
 -5.570815843630e-04    9  8  7  2
 -9.366545086837e-04    9  8  8  1
  6.217716960907e-03    9  8  8  4
  1.536479675782e-02    9  8  9  8
  2.992447888803e-01    9  9  1  1
  2.898223320515e-01    9  9  2  2
  5.993282491619e-01    9  9  3  3
  1.278702235713e-03    9  9  4  1
  5.769914000371e-01    9  9  4  4
  5.798627286153e-01    9  9  5  5
  5.984847134080e-01    9  9  6  6
  5.965000379937e-01    9  9  7  7
  5.999687809257e-01    9  9  8  8
 -7.537520971603e-03    9  9  9  1
  3.651821527698e-04    9  9  9  4
  6.268770412639e-01    9  9  9  9
  3.313364980608e-04    10  1  5  1
  5.414502381730e-03    10  1  5  4
  8.186858339909e-03    10  1  7  6
 -8.013968602343e-03    10  1  8  3
  2.261914295833e-04    10  1  9  5
  9.834441899327e-04    10  1  10  1
 -7.161997081676e-05    10  2  5  2
  8.527069672443e-04    10  2  7  3
 -8.629469857282e-04    10  2  8  6
  4.012498943636e-04    10  2  10  2
 -6.203218160268e-03    10  3  5  3
 -5.225900060083e-04    10  3  7  2
 -9.805281335564e-04    10  3  8  1
  6.167290113907e-03    10  3  8  4
  1.535018272628e-02    10  3  9  8
  1.534513158315e-02    10  3  10  3
 -1.276738413925e-03    10  4  5  1
 -1.214515788453e-03    10  4  5  4
 -1.037323288253e-02    10  4  7  6
 -8.531535415459e-03    10  4  8  3
 -2.090160609267e-02    10  4  9  5
 -2.464854765884e-04    10  4  10  1
  2.083644845615e-02    10  4  10  4
  1.636131499824e-03    10  5  1  1
  8.473178263178e-04    10  5  2  2
  9.961134448275e-03    10  5  3  3
 -1.085423153370e-03    10  5  4  1
  1.911325824198e-04    10  5  4  4
  1.829940083811e-04    10  5  5  5
 -9.189517534914e-03    10  5  6  6
 -9.132233605584e-03    10  5  7  7
  9.956408871584e-03    10  5  8  8
  1.390677250916e-04    10  5  9  1
 -2.097230335050e-02    10  5  9  4
  4.789878549658e-04    10  5  9  9
  2.112595138859e-02    10  5  10  5
  6.827056877954e-03    10  6  6  5
  1.097591399028e-03    10  6  7  1
  6.780210257442e-03    10  6  7  4
  5.831980357988e-04    10  6  8  2
 -1.611573963110e-02    10  6  9  7
  1.620165226435e-02    10  6  10  6
 -5.448217960182e-04    10  7  3  2
  1.111674459561e-03    10  7  6  1
  6.789276320078e-03    10  7  6  4
  6.796368305840e-03    10  7  7  5
 -1.612491832127e-02    10  7  9  6
  1.610928876345e-02    10  7  10  7
 -9.526524483880e-04    10  8  3  1
  6.209999977370e-03    10  8  4  3
  5.486695273046e-04    10  8  6  2
 -6.249489905785e-03    10  8  8  5
  1.537496744341e-02    10  8  9  3
  1.538866190033e-02    10  8  10  8
  3.673789167177e-04    10  9  5  1
 -3.910170128111e-01    10  9  5  4
 -4.127479962275e-01    10  9  7  6
  4.125760337297e-01    10  9  8  3
 -1.557907325851e-03    10  9  9  5
 -9.330665159941e-03    10  9  10  1
  7.750593510073e-04    10  9  10  4
  4.420919488723e-01    10  9  10  9
  2.993836986841e-01    10  10  1  1
  2.899376298043e-01    10  10  2  2
  6.005623432941e-01    10  10  3  3
  1.288791769680e-03    10  10  4  1
  5.781493772201e-01    10  10  4  4
  5.810314582598e-01    10  10  5  5
  5.996587128574e-01    10  10  6  6
  5.976667730779e-01    10  10  7  7
  6.012039592277e-01    10  10  8  8
 -7.594521686928e-03    10  10  9  1
  2.926390975602e-04    10  10  9  4
  6.281616397356e-01    10  10  9  9
  5.576214809133e-04    10  10  10  5
  6.294544172351e-01    10  10  10  10
 -5.678380424281e-04    11  1  3  1
  1.874534941025e-03    11  1  4  3
  6.222222501356e-04    11  1  6  2
 -1.846067585568e-03    11  1  8  5
  9.744481826768e-04    11  1  9  3
  9.986173735230e-04    11  1  10  8
  7.249800055216e-02    11  1  11  1
 -1.292820797419e-03    11  2  3  2
  2.633328878619e-04    11  2  6  1
 -1.348702995052e-03    11  2  6  4
 -1.227580800632e-03    11  2  7  5
  8.897352467462e-04    11  2  9  6
 -8.696651496216e-04    11  2  10  7
  6.845835492154e-02    11  2  11  2
  9.790703687527e-05    11  3  1  1
 -6.060355293029e-04    11  3  2  2
 -1.975033213487e-03    11  3  3  3
  5.325003084033e-04    11  3  4  1
 -1.442558887931e-03    11  3  4  4
 -1.515630642899e-03    11  3  5  5
 -1.676275221082e-03    11  3  6  6
 -1.631028457444e-03    11  3  7  7
 -1.915021245712e-03    11  3  8  8
 -1.017466352692e-04    11  3  9  1
 -1.294079590700e-05    11  3  9  4
 -1.665775163760e-03    11  3  9  9
  5.123680167858e-06    11  3  10  5
 -1.687222254965e-03    11  3  10  10
  9.849564556494e-04    11  3  11  3
  2.308706674819e-04    11  4  3  1
 -1.556265694722e-04    11  4  4  3
 -3.976081222616e-05    11  4  6  2
  1.489047854361e-04    11  4  8  5
 -2.534391678100e-05    11  4  9  3
 -3.642429820172e-05    11  4  10  8
  4.184710344674e-04    11  4  11  1
  2.326378635133e-04    11  4  11  4
 -2.038405671367e-04    11  5  5  3
 -4.290861788201e-05    11  5  7  2
 -1.560615804035e-04    11  5  8  1
  2.026342802351e-04    11  5  8  4
  4.000420325759e-05    11  5  9  8
  4.945269503286e-05    11  5  10  3
  1.449782269925e-04    11  5  11  5
  1.773406315166e-03    11  6  2  1
 -2.059945161569e-04    11  6  4  2
 -1.741292277077e-04    11  6  6  3
  1.133043193813e-04    11  6  8  7
 -5.235075643658e-05    11  6  9  2
  5.106532461808e-04    11  6  11  6
 -1.850258566751e-04    11  7  5  2
 -1.392991763050e-04    11  7  7  3
  9.685050190580e-05    11  7  8  6
  1.528754302752e-04    11  7  10  2
  6.257600844352e-04    11  7  11  7
 -2.714552331117e-04    11  8  5  1
  1.777962350641e-03    11  8  5  4
  1.753103560399e-03    11  8  7  6
 -2.367341382339e-03    11  8  8  3
 -1.546327854789e-04    11  8  9  5
 -1.056561557506e-04    11  8  10  1
  1.263367653781e-04    11  8  10  4
 -1.950376713140e-03    11  8  10  9
  7.456339637327e-04    11  8  11  8
  2.785704385743e-04    11  9  3  1
  5.166913820355e-05    11  9  4  3
  2.210705413345e-04    11  9  6  2
 -5.223924249158e-05    11  9  8  5
 -1.085164932230e-04    11  9  9  3
 -8.386951129129e-05    11  9  10  8
  3.992590989281e-03    11  9  11  1
  3.292280064019e-05    11  9  11  4
  7.725832047935e-04    11  9  11  9
  8.668612604322e-05    11  10  5  3
 -1.523614643236e-04    11  10  7  2
  2.596374494778e-04    11  10  8  1
 -9.516538108125e-05    11  10  8  4
 -1.622181150504e-04    11  10  9  8
 -2.163286883291e-04    11  10  10  3
 -9.712714008038e-06    11  10  11  5
  4.330859861474e-04    11  10  11  10
  4.728263260503e-01    11  11  1  1
  4.777712507252e-01    11  11  2  2
  2.857303403075e-01    11  11  3  3
  2.769249101834e-03    11  11  4  1
  2.883692723429e-01    11  11  4  4
  2.874778570753e-01    11  11  5  5
  2.843098754362e-01    11  11  6  6
  2.845436725777e-01    11  11  7  7
  2.859502738028e-01    11  11  8  8
  1.822435207463e-03    11  11  9  1
 -7.455861762123e-04    11  11  9  4
  2.835577820843e-01    11  11  9  9
  9.694866407229e-04    11  11  10  5
  2.835434620723e-01    11  11  10  10
 -3.954188498068e-04    11  11  11  3
  4.750834768916e-01    11  11  11  11
  1.328981872052e-03    12  1  3  2
 -2.343475214065e-04    12  1  6  1
  1.362848567570e-03    12  1  6  4
  1.243719997486e-03    12  1  7  5
 -9.005479497989e-04    12  1  9  6
  8.810205974691e-04    12  1  10  7
 -6.946920207894e-02    12  1  11  2
  7.050102614085e-02    12  1  12  1
  8.577972685926e-04    12  2  3  1
 -1.410304695128e-03    12  2  4  3
 -4.620707162734e-04    12  2  6  2
  1.383653428678e-03    12  2  8  5
 -7.114004863402e-04    12  2  9  3
 -7.496886755940e-04    12  2  10  8
 -7.568293325853e-02    12  2  11  1
 -2.334624203036e-04    12  2  11  4
 -3.992775050702e-03    12  2  11  9
  7.960971270283e-02    12  2  12  2
  5.839556212897e-03    12  3  2  1
 -8.576733377444e-05    12  3  4  2
  6.265457060942e-04    12  3  6  3
 -6.149488306779e-04    12  3  8  7
  1.428668046967e-04    12  3  9  2
 -1.680670022293e-04    12  3  11  6
  3.766282520525e-04    12  3  12  3
 -4.506555676807e-05    12  4  3  2
  1.140860110488e-04    12  4  6  1
  6.237564292028e-04    12  4  6  4
  6.359080620593e-04    12  4  7  5
 -1.851478812721e-04    12  4  9  6
  1.859501541681e-04    12  4  10  7
  2.534321719888e-04    12  4  11  2
 -2.498926182904e-04    12  4  12  1
  9.961892542353e-05    12  4  12  4
  6.897570242403e-04    12  5  6  5
  1.044270360428e-04    12  5  7  1
  6.706741369493e-04    12  5  7  4
  3.109285996059e-05    12  5  8  2
 -2.148318609208e-04    12  5  9  7
  2.177973398232e-04    12  5  10  6
  6.835115435455e-05    12  5  12  5
  8.188731533079e-04    12  6  1  1
  8.751020334590e-04    12  6  2  2
  1.016511624867e-02    12  6  3  3
  9.407370626577e-05    12  6  4  1
  1.015753002388e-02    12  6  4  4
  1.030502589097e-02    12  6  5  5
  1.164013993598e-02    12  6  6  6
  1.154422028430e-02    12  6  7  7
  1.015616697998e-02    12  6  8  8
 -1.455058624873e-04    12  6  9  1
  3.641194489354e-04    12  6  9  4
  1.050247079704e-02    12  6  9  9
 -3.335313541053e-04    12  6  10  5
  1.054159388751e-02    12  6  10  10
 -4.256548337544e-04    12  6  11  3
  8.047197736593e-04    12  6  11  11
  6.289477601106e-04    12  6  12  6
  1.474215765695e-04    12  7  5  1
  9.241730028509e-03    12  7  5  4
  1.057927547431e-02    12  7  7  6
 -9.249470064279e-03    12  7  8  3
  3.065797664565e-04    12  7  9  5
  9.379955068074e-05    12  7  10  1
 -3.043742626690e-04    12  7  10  4
 -9.588706670995e-03    12  7  10  9
  4.331810150082e-04    12  7  11  8
  6.847330270558e-04    12  7  12  7
  5.184273375235e-06    12  8  5  2
 -5.140859074883e-04    12  8  7  3
  5.032766172345e-04    12  8  8  6
  9.851434820584e-05    12  8  10  2
  2.778293003960e-04    12  8  11  7
  2.254092171977e-04    12  8  12  8
  6.917835596760e-05    12  9  3  2
 -8.131939845587e-05    12  9  6  1
 -1.529926638220e-04    12  9  6  4
 -1.656311072587e-04    12  9  7  5
  4.939976511830e-04    12  9  9  6
 -4.930965442850e-04    12  9  10  7
 -2.700141783599e-03    12  9  11  2
  2.731972009340e-03    12  9  12  1
 -3.214311994303e-05    12  9  12  4
  1.795757985919e-04    12  9  12  9
  2.258948651420e-04    12  10  6  5
  5.527548396559e-05    12  10  7  1
  2.170322362692e-04    12  10  7  4
  2.855723705611e-05    12  10  8  2
 -5.389605798756e-04    12  10  9  7
  5.444196055783e-04    12  10  10  6
  1.720821081549e-05    12  10  12  5
  5.431827612843e-05    12  10  12  10
 -2.500677213639e-01    12  11  2  1
  1.688043031628e-03    12  11  4  2
 -3.745647369851e-03    12  11  6  3
  4.318867755588e-03    12  11  8  7
 -3.483455845789e-03    12  11  9  2
 -1.385946130144e-03    12  11  11  6
 -6.496577645855e-03    12  11  12  3
  2.626937087496e-01    12  11  12  11
  4.867666232520e-01    12  12  1  1
  4.934459846466e-01    12  12  2  2
  2.808662352985e-01    12  12  3  3
  2.419270700238e-03    12  12  4  1
  2.843588886841e-01    12  12  4  4
  2.834352417590e-01    12  12  5  5
  2.800737568341e-01    12  12  6  6
  2.803225499352e-01    12  12  7  7
  2.810546765952e-01    12  12  8  8
  2.160051655277e-03    12  12  9  1
 -5.202119053881e-04    12  12  9  4
  2.787743441338e-01    12  12  9  9
  7.555701882617e-04    12  12  10  5
  2.787633123906e-01    12  12  10  10
 -1.417626203613e-03    12  12  11  3
  4.897276525707e-01    12  12  11  11
  1.089506987140e-03    12  12  12  6
  5.069858991937e-01    12  12  12  12
  5.957695723764e-04    13  1  5  1
 -5.755511563154e-02    13  1  5  4
 -5.599792419890e-02    13  1  7  6
  5.458103292512e-02    13  1  8  3
 -6.698494411045e-04    13  1  9  5
 -3.512048581282e-03    13  1  10  1
  5.848875084091e-04    13  1  10  4
  5.421841654110e-02    13  1  10  9
  2.881757642876e-03    13  1  11  8
  2.055861755718e-03    13  1  12  7
  7.236349753750e-02    13  1  13  1
  6.584739054704e-04    13  2  5  2
 -2.011639455267e-03    13  2  7  3
  2.185115061510e-03    13  2  8  6
 -2.847359065264e-03    13  2  10  2
 -3.253524084111e-03    13  2  11  7
 -2.274161758819e-03    13  2  12  8
  6.654202101380e-02    13  2  13  2
 -3.040988323019e-04    13  3  5  3
 -3.651445790616e-04    13  3  7  2
  1.072248284406e-03    13  3  8  1
  2.163858403494e-04    13  3  8  4
  2.573086199152e-04    13  3  9  8
  2.036505992312e-04    13  3  10  3
 -1.961181706793e-04    13  3  11  5
  2.303325532381e-04    13  3  11  10
  1.503048504105e-03    13  3  13  3
 -1.446120507285e-03    13  4  5  1
 -6.054589950129e-03    13  4  5  4
 -5.294651617247e-03    13  4  7  6
  4.829875074408e-03    13  4  8  3
 -5.086202919221e-04    13  4  9  5
 -1.021910867270e-04    13  4  10  1
  4.563177696547e-04    13  4  10  4
  4.759566710416e-03    13  4  10  9
  1.974182616651e-06    13  4  11  8
 -6.141912281278e-04    13  4  12  7
 -3.402931552225e-03    13  4  13  1
  2.665660654614e-03    13  4  13  4
 -2.555828443027e-03    13  5  1  1
 -1.822775352945e-03    13  5  2  2
 -1.096308250859e-02    13  5  3  3
 -1.686783877454e-03    13  5  4  1
 -1.221142200636e-02    13  5  4  4
 -1.250290317777e-02    13  5  5  5
 -1.145578699161e-02    13  5  6  6
 -1.137164634011e-02    13  5  7  7
 -1.098865224718e-02    13  5  8  8
  3.512532934573e-04    13  5  9  1
 -4.759883888920e-04    13  5  9  4
 -1.080232759372e-02    13  5  9  9
  4.486010509450e-04    13  5  10  5
 -1.084447598396e-02    13  5  10  10
 -3.668938839151e-04    13  5  11  3
 -2.179982682252e-03    13  5  11  11
 -4.834137760337e-04    13  5  12  6
 -1.713619180680e-03    13  5  12  12
  2.617839321217e-03    13  5  13  5
 -8.273927766976e-04    13  6  6  5
 -8.404075969579e-04    13  6  7  1
 -6.895449370656e-04    13  6  7  4
  2.649097542588e-04    13  6  8  2
  1.039332792698e-04    13  6  9  7
 -1.285466831964e-04    13  6  10  6
 -1.584920847250e-04    13  6  12  5
 -7.369235804358e-05    13  6  12  10
  1.594419449697e-03    13  6  13  6
 -1.771666420928e-04    13  7  3  2
 -8.289359108714e-04    13  7  6  1
 -6.136303177487e-04    13  7  6  4
 -7.327076853738e-04    13  7  7  5
  5.058001551797e-05    13  7  9  6
 -6.444783184588e-05    13  7  10  7
 -3.393065611936e-03    13  7  11  2
  3.379490727786e-03    13  7  12  1
 -2.214768485912e-04    13  7  12  4
  2.297661251184e-04    13  7  12  9
  1.832616527976e-03    13  7  13  7
  1.124335628111e-03    13  8  3  1
  3.683600954733e-04    13  8  4  3
  4.460277731462e-04    13  8  6  2
 -4.493539364793e-04    13  8  8  5
  3.265641079948e-04    13  8  9  3
  3.044291992067e-04    13  8  10  8
  3.879405354567e-03    13  8  11  1
  2.264801534016e-04    13  8  11  4
  5.390015082466e-04    13  8  11  9
 -3.673176897280e-03    13  8  12  2
  1.822052307312e-03    13  8  13  8
  1.595606213467e-04    13  9  5  1
 -5.069645342549e-03    13  9  5  4
 -4.932744080312e-03    13  9  7  6
  4.522553574084e-03    13  9  8  3
 -5.307422623626e-04    13  9  9  5
  7.194593290245e-04    13  9  10  1
  4.232388204165e-04    13  9  10  4
  4.984908776528e-03    13  9  10  9
  1.529608308885e-05    13  9  11  8
 -6.345679818009e-05    13  9  12  7
 -4.676704677804e-04    13  9  13  1
  1.454961777703e-04    13  9  13  4
  1.479297515916e-03    13  9  13  9
 -8.871276412795e-03    13  10  1  1
 -8.967907886322e-03    13  10  2  2
  1.746508577901e-04    13  10  3  3
 -2.472248675199e-04    13  10  4  1
  5.168154345803e-04    13  10  4  4
  6.287301915437e-04    13  10  5  5
  6.642232933187e-04    13  10  6  6
  6.424696267919e-04    13  10  7  7
  1.691985883487e-04    13  10  8  8
  7.683646001016e-04    13  10  9  1
  4.759253212124e-04    13  10  9  4
  7.701004179892e-04    13  10  9  9
 -5.871245064053e-04    13  10  10  5
  7.280471250950e-04    13  10  10  10
 -5.415540256010e-05    13  10  11  3
 -6.712535062378e-03    13  10  11  11
  7.422034981870e-05    13  10  12  6
 -7.219945151824e-03    13  10  12  12
 -7.242946278183e-05    13  10  13  5
  1.757169174258e-03    13  10  13  10
 -8.514132612751e-04    13  11  5  3
 -1.336429563574e-03    13  11  7  2
  1.007684650377e-03    13  11  8  1
  7.344916201999e-04    13  11  8  4
  5.373184764134e-04    13  11  9  8
  4.112256568724e-04    13  11  10  3
 -7.437328859588e-05    13  11  11  5
  1.611413064751e-04    13  11  11  10
  6.203741187033e-04    13  11  13  3
  1.697334824352e-02    13  11  13  11
 -9.393054712836e-04    13  12  6  5
  1.174252263190e-03    13  12  7  1
 -1.046773143979e-03    13  12  7  4
 -1.025616134062e-03    13  12  8  2
  6.185354039838e-04    13  12  9  7
 -5.742994965144e-04    13  12  10  6
  6.603758405831e-05    13  12  12  5
 -2.067188093438e-04    13  12  12  10
 -1.197587155866e-03    13  12  13  6
  1.687216412874e-02    13  12  13  12
  4.583108121757e-01    13  13  1  1
  4.619881556440e-01    13  13  2  2
  3.114797912215e-01    13  13  3  3
  1.003209974135e-03    13  13  4  1
  3.179890953750e-01    13  13  4  4
  3.171875068914e-01    13  13  5  5
  3.122176375211e-01    13  13  6  6
  3.123493051838e-01    13  13  7  7
  3.118540465633e-01    13  13  8  8
 -4.622842391980e-04    13  13  9  1
  2.643311215304e-04    13  13  9  4
  3.093907252474e-01    13  13  9  9
  8.837802372847e-05    13  13  10  5
  3.096269061926e-01    13  13  10  10
  7.698221137680e-04    13  13  11  3
  4.269220986793e-01    13  13  11  11
  3.695034050862e-04    13  13  12  6
  4.373562234924e-01    13  13  12  12
 -8.813380130055e-04    13  13  13  5
 -8.577698679718e-03    13  13  13  10
  4.465885541809e-01    13  13  13  13
  5.807364814753e-04    14  1  5  2
 -8.901957294400e-04    14  1  7  3
  1.031318898655e-03    14  1  8  6
 -2.375052281752e-03    14  1  10  2
 -2.750824509923e-03    14  1  11  7
 -1.880559840383e-03    14  1  12  8
  5.308598446540e-02    14  1  13  2
  4.275527833300e-02    14  1  14  1
  3.932424910915e-04    14  2  5  1
 -5.877190475526e-02    14  2  5  4
 -5.693449427913e-02    14  2  7  6
  5.519894649407e-02    14  2  8  3
 -8.670296350253e-04    14  2  9  5
 -3.223687058472e-03    14  2  10  1
  7.869877662520e-04    14  2  10  4
  5.467647966247e-02    14  2  10  9
  2.392143389490e-03    14  2  11  8
  1.464032710590e-03    14  2  12  7
  6.211772838314e-02    14  2  13  1
 -2.715174621731e-03    14  2  13  4
 -4.744137505349e-04    14  2  13  9
  5.387419838928e-02    14  2  14  2
  5.908302705472e-03    14  3  6  5
  7.348800901226e-04    14  3  7  1
  5.886747157788e-03    14  3  7  4
  1.201775249015e-03    14  3  8  2
 -4.290506890087e-03    14  3  9  7
  4.306765817349e-03    14  3  10  6
  2.193982626223e-04    14  3  12  5
  1.512740455167e-04    14  3  12  10
 -1.046318651830e-06    14  3  13  6
 -7.864919648653e-04    14  3  13  12
  8.399341740331e-03    14  3  14  3
 -1.026507674613e-03    14  4  5  2
  3.979400510981e-04    14  4  7  3
 -4.394039465399e-04    14  4  8  6
  2.629631928749e-04    14  4  10  2
  4.608330865836e-04    14  4  11  7
  1.401569137550e-04    14  4  12  8
 -3.573648376791e-03    14  4  13  2
 -2.902292758503e-03    14  4  14  1
  5.438881247358e-03    14  4  14  4
  3.256578262368e-03    14  5  2  1
 -1.102401729736e-03    14  5  4  2
  3.166177267553e-04    14  5  6  3
 -3.591079643236e-04    14  5  8  7
 -7.244107252786e-05    14  5  9  2
  2.999142015382e-04    14  5  11  6
  9.093248081929e-05    14  5  12  3
 -2.973881371910e-03    14  5  12  11
  5.297566511391e-03    14  5  14  5
 -5.891125962433e-03    14  6  5  3
 -1.427334724362e-03    14  6  7  2
 -5.830288811758e-04    14  6  8  1
  5.817213585500e-03    14  6  8  4
  3.998066944053e-03    14  6  9  8
  3.937646097523e-03    14  6  10  3
  1.120830549163e-04    14  6  11  5
  1.384700757661e-04    14  6  11  10
  3.859185908371e-04    14  6  13  3
  1.639930844450e-03    14  6  13  11
  8.778770860261e-03    14  6  14  6
  6.037408725807e-04    14  7  3  1
 -5.938131574179e-03    14  7  4  3
 -1.445148406585e-03    14  7  6  2
  5.974781872979e-03    14  7  8  5
 -4.025942639061e-03    14  7  9  3
 -4.015514832938e-03    14  7  10  8
 -4.263010420774e-03    14  7  11  1
  1.228776021508e-04    14  7  11  4
 -4.426833849975e-04    14  7  11  9
  3.958997608585e-03    14  7  12  2
 -7.313117839344e-04    14  7  13  8
  9.029012257016e-03    14  7  14  7
  1.158327103527e-03    14  8  3  2
 -7.219209934830e-04    14  8  6  1
 -6.003840607705e-03    14  8  6  4
 -5.984408695060e-03    14  8  7  5
  4.368599986025e-03    14  8  9  6
 -4.357495005115e-03    14  8  10  7
  2.776931549240e-03    14  8  11  2
 -2.791248838991e-03    14  8  12  1
 -1.625459751199e-04    14  8  12  4
  2.779285292200e-05    14  8  12  9
 -2.251278572671e-04    14  8  13  7
  8.615762723815e-03    14  8  14  8
 -6.600413561514e-05    14  9  5  2
  5.994547682997e-03    14  9  7  3
 -6.022088908375e-03    14  9  8  6
  1.322441183215e-03    14  9  10  2
  7.360552174088e-05    14  9  11  7
 -4.010977450137e-05    14  9  12  8
 -2.650530014548e-03    14  9  13  2
 -1.810699580503e-03    14  9  14  1
  5.283801055546e-04    14  9  14  4
  8.607103763810e-03    14  9  14  9
 -9.775771746110e-03    14  10  2  1
  1.734280857234e-04    14  10  4  2
 -6.180091080659e-03    14  10  6  3
  6.203727964179e-03    14  10  8  7
  1.206231290020e-03    14  10  9  2
 -1.205905954911e-04    14  10  11  6
 -2.151996168365e-04    14  10  12  3
  7.968608541438e-03    14  10  12  11
 -4.771235839177e-04    14  10  14  5
  9.057540809643e-03    14  10  14  10
  7.010270332562e-04    14  11  6  5
 -1.038490920601e-03    14  11  7  1
  7.970113401431e-04    14  11  7  4
  8.743347229984e-04    14  11  8  2
 -4.723987757748e-04    14  11  9  7
  4.329860437697e-04    14  11  10  6
 -4.892832977262e-05    14  11  12  5
  1.635514359212e-04    14  11  12  10
  1.125308331244e-03    14  11  13  6
 -1.322082951838e-02    14  11  13  12
  6.501518334750e-04    14  11  14  3
  1.042187053576e-02    14  11  14  11
  2.439820134876e-04    14  12  5  3
  9.930171901792e-04    14  12  7  2
 -8.421929399537e-04    14  12  8  1
 -1.585557698467e-04    14  12  8  4
 -1.326346088235e-04    14  12  9  8
 -5.758005114366e-05    14  12  10  3
  1.959780431549e-05    14  12  11  5
 -6.115402504761e-06    14  12  11  10
 -4.136596133534e-04    14  12  13  3
 -1.371481207107e-02    14  12  13  11
 -8.290423272632e-04    14  12  14  6
  1.125527546082e-02    14  12  14  12
  1.825411987514e-01    14  13  2  1
 -2.391918788533e-03    14  13  4  2
  3.473148871274e-03    14  13  6  3
 -4.033047009423e-03    14  13  8  7
  8.494538096309e-04    14  13  9  2
  2.374555086328e-03    14  13  11  6
  3.217303956177e-03    14  13  12  3
 -1.643818315891e-01    14  13  12  11
  3.433478178344e-03    14  13  14  5
 -8.376035337519e-03    14  13  14  10
  1.417607618381e-01    14  13  14  13
  4.122233178306e-01    14  14  1  1
  4.112797693832e-01    14  14  2  2
  4.173279244285e-01    14  14  3  3
  1.370870026534e-03    14  14  4  1
  4.295000717516e-01    14  14  4  4
  4.301056019155e-01    14  14  5  5
  4.181931978364e-01    14  14  6  6
  4.175866513231e-01    14  14  7  7
  4.178455968547e-01    14  14  8  8
 -1.979249030219e-03    14  14  9  1
  2.122137388742e-04    14  14  9  4
  4.109160311164e-01    14  14  9  9
  4.001709558634e-04    14  14  10  5
  4.115345070334e-01    14  14  10  10
  1.948211942645e-04    14  14  11  3
  3.835695835881e-01    14  14  11  11
  3.871677301378e-03    14  14  12  6
  3.891019108891e-01    14  14  12  12
 -4.915850099408e-03    14  14  13  5
 -6.133740080972e-03    14  14  13  10
  4.090346667970e-01    14  14  13  13
  4.292362965568e-01    14  14  14  14
 -1.261343925668e-02    15  1  1  1
 -2.586208104686e-03    15  1  2  2
 -4.318799933213e-02    15  1  3  3
 -3.757784322369e-03    15  1  4  1
 -4.288214512235e-02    15  1  4  4
 -4.273963749293e-02    15  1  5  5
 -3.894326063844e-02    15  1  6  6
 -3.890627467893e-02    15  1  7  7
 -4.337063563076e-02    15  1  8  8
  2.646597180513e-03    15  1  9  1
  2.478949364760e-03    15  1  9  4
 -4.052655766446e-02    15  1  9  9
 -2.564848415616e-03    15  1  10  5
 -4.067513219415e-02    15  1  10  10
 -4.211561730804e-03    15  1  11  3
 -6.780544437511e-03    15  1  11  11
  9.503568713006e-04    15  1  12  6
  2.191955350226e-04    15  1  12  12
  4.126218846771e-03    15  1  13  5
  1.590673319775e-03    15  1  13  10
 -1.246002505470e-02    15  1  13  13
 -2.532823803102e-02    15  1  14  14
  7.897516076014e-02    15  1  15  1
  4.404314044385e-02    15  2  2  1
 -1.918669901732e-03    15  2  4  2
 -8.463989941752e-04    15  2  6  3
  8.420037490414e-04    15  2  8  7
  2.304142834129e-03    15  2  9  2
 -7.720072791633e-04    15  2  11  6