 &FCI NORB=32 ,NELEC=32 ,MS2=0,
  ORBSYM=1,3,5,6,2,7,8,2,1,1,5,7,4,1,2,3,4,3,5,2,7,6,8,2,1,1,2,1,3,5,4,7,
  ISYM=1,
 &END
  5.670994195955e-01    1  1  1  1
  2.305840592609e-01    2  1  2  1
  5.616218969907e-01    2  2  1  1
  5.722459708364e-01    2  2  2  2
  8.363548183732e-02    3  1  3  1
  6.514528168764e-02    3  2  3  2
  5.474989121427e-01    3  3  1  1
  5.391767261593e-01    3  3  2  2
  5.619646763339e-01    3  3  3  3
  6.345768299684e-04    4  1  4  1
  1.562321346230e-04    4  2  4  2
  8.418732385302e-04    4  3  4  3
  2.777912140751e-01    4  4  1  1
  2.684679566532e-01    4  4  2  2
  2.717375770097e-01    4  4  3  3
  5.943619757074e-01    4  4  4  4
  3.550109106117e-04    5  1  4  3
  8.026845622819e-04    5  1  5  1
  1.345421960067e-04    5  2  5  2
  6.015292872664e-05    5  3  4  1
  1.229752672929e-04    5  3  5  3
  8.140016332932e-04    5  4  3  1
  1.306240914425e-02    5  4  5  4
  2.772777294306e-01    5  5  1  1
  2.679483875706e-01    5  5  2  2
  2.700190975709e-01    5  5  3  3
  5.638246895521e-01    5  5  4  4
  5.880068343235e-01    5  5  5  5
  2.259102822195e-04    6  1  3  2
  1.689091685995e-04    6  1  6  1
 -3.365894134632e-05    6  2  3  1
 -1.564963535252e-04    6  2  5  4
  1.016299920731e-04    6  2  6  2
  2.989139244641e-04    6  3  2  1
  1.470491948369e-04    6  3  6  3
 -1.818464737283e-04    6  4  5  2
  1.988297120729e-02    6  4  6  4
  4.380324480873e-04    6  5  4  2
  2.492460014232e-02    6  5  6  5
  2.698441145436e-01    6  6  1  1
  2.621519972533e-01    6  6  2  2
  2.638755767470e-01    6  6  3  3
  5.555928678528e-01    6  6  4  4
  5.507015465199e-01    6  6  5  5
  5.966467020914e-01    6  6  6  6
  8.383349751929e-05    7  1  4  2
 -7.286573120962e-04    7  1  6  5
  1.872854264306e-04    7  1  7  1
  1.554721207632e-04    7  2  4  1
 -1.470429569818e-05    7  2  5  3
  1.237011402876e-04    7  2  7  2
 -2.237182747963e-05    7  3  5  2
 -1.793960459632e-05    7  3  6  4
  1.781258575993e-04    7  3  7  3
  3.515136947884e-03    7  4  2  1
  1.210016886428e-05    7  4  6  3
  1.985578191227e-02    7  4  7  4
 -7.474944587659e-04    7  5  3  2
 -7.412784429946e-04    7  5  6  1
  2.485090050505e-02    7  5  7  5
 -4.007509450745e-03    7  6  4  3
 -3.949181392148e-03    7  6  5  1
  4.505280039632e-01    7  6  7  6
  2.699685468303e-01    7  7  1  1
  2.622901812189e-01    7  7  2  2
  2.640148748448e-01    7  7  3  3
  5.544189336097e-01    7  7  4  4
  5.495376404113e-01    7  7  5  5
  5.953064298848e-01    7  7  6  6
  5.939721624712e-01    7  7  7  7
 -2.326043611021e-05    8  1  4  3
 -2.231077674488e-05    8  1  5  1
 -7.297151645419e-04    8  1  7  6
  1.908925262237e-04    8  1  8  1
 -2.229776752407e-05    8  2  5  2
 -3.417718369711e-04    8  2  6  4
  6.662068303990e-05    8  2  7  3
  1.199582216640e-04    8  2  8  2
 -1.643634960797e-04    8  3  4  1
  1.428971442509e-05    8  3  5  3
 -4.904590838701e-05    8  3  7  2
  1.329485264011e-04    8  3  8  3
 -1.837551777817e-03    8  4  3  1
 -4.527243630851e-03    8  4  5  4
  3.381526655414e-04    8  4  6  2
  2.001576175195e-02    8  4  8  4
 -1.067235470310e-03    8  5  1  1
 -1.311785328664e-03    8  5  2  2
 -4.481861218625e-04    8  5  3  3
  1.051225027208e-02    8  5  4  4
 -1.342709566632e-03    8  5  5  5
 -1.164515189860e-03    8  5  6  6
 -1.161181945358e-03    8  5  7  7
  2.481377547676e-02    8  5  8  5
  2.044140913824e-05    8  6  4  2
  5.620522623955e-04    8  6  6  5
 -1.889215927688e-05    8  6  7  1
  1.097387298902e-02    8  6  8  6
 -3.870243008509e-05    8  7  3  2
 -1.909372365565e-05    8  7  6  1
  5.615923196794e-04    8  7  7  5
  1.093396868525e-02    8  7  8  7
  2.698379969160e-01    8  8  1  1
  2.621220000911e-01    8  8  2  2
  2.639099008720e-01    8  8  3  3
  5.552573075826e-01    8  8  4  4
  5.493688290462e-01    8  8  5  5
  5.732763138928e-01    8  8  6  6
  5.720224690871e-01    8  8  7  7
 -3.951346385607e-05    8  8  8  5
  5.938086870570e-01    8  8  8  8
 -1.142225832495e-03    9  1  1  1
 -8.758632105551e-04    9  1  2  2
 -1.778310884724e-03    9  1  3  3
  8.134660558934e-04    9  1  4  4
  1.873413792419e-04    9  1  5  5
  2.880271715066e-04    9  1  6  6
  2.876836638504e-04    9  1  7  7
  7.213741719293e-04    9  1  8  5
  3.247273185567e-04    9  1  8  8
  1.998839931593e-04    9  1  9  1
  6.213180095212e-04    9  2  2  1
 -5.663048299857e-05    9  2  6  3
  3.448927848857e-04    9  2  7  4
  1.174403224597e-04    9  2  9  2
 -2.288542334839e-03    9  3  3  1
 -7.382023149115e-06    9  3  5  4
  4.672285612751e-05    9  3  6  2
  2.322852261427e-05    9  3  8  4
  2.089039319686e-04    9  3  9  3
  4.506511929213e-04    9  4  4  1
 -4.421877978026e-05    9  4  5  3
 -3.457137317176e-04    9  4  7  2
 -2.284388090229e-05    9  4  8  3
  2.000432318495e-02    9  4  9  4
 -4.899703934929e-06    9  5  4  3
 -1.906220360544e-05    9  5  5  1
  1.317620664687e-03    9  5  7  6
  7.229111081769e-04    9  5  8  1
  2.480406425507e-02    9  5  9  5
  1.535634301455e-05    9  6  3  2
  2.483494105667e-05    9  6  6  1
 -5.548003769887e-04    9  6  7  5
 -1.095364926399e-02    9  6  8  7
  1.097375892307e-02    9  6  9  6
 -1.797010393683e-05    9  7  4  2
 -5.542764067082e-04    9  7  6  5
  2.473084624277e-05    9  7  7  1
 -1.095354143905e-02    9  7  8  6
  1.093360152406e-02    9  7  9  7
  4.005861764129e-03    9  8  4  3
  3.942931687211e-03    9  8  5  1
 -4.278669030107e-01    9  8  7  6
  7.735838907621e-04    9  8  8  1
 -2.030032109711e-04    9  8  9  5
  4.490220062048e-01    9  8  9  8
  2.698889931049e-01    9  9  1  1
  2.621777871569e-01    9  9  2  2
  2.639542499414e-01    9  9  3  3
  5.553022617417e-01    9  9  4  4
  5.494096106294e-01    9  9  5  5
  5.733216412489e-01    9  9  6  6
  5.720676293187e-01    9  9  7  7
 -5.402272022053e-05    9  9  8  5
  5.938527055321e-01    9  9  8  8
  3.360312035107e-04    9  9  9  1
  5.938980960220e-01    9  9  9  9
 -9.838893944406e-04    10  1  1  1
 -1.309420124091e-03    10  1  2  2
 -1.616038627518e-03    10  1  3  3
  2.688130241008e-03    10  1  4  4
  2.588959395696e-03    10  1  5  5
  3.471926093668e-03    10  1  6  6
  3.459819103467e-03    10  1  7  7
 -5.044652861059e-05    10  1  8  5
  3.459153199662e-03    10  1  8  8
  2.144740838939e-05    10  1  9  1
  3.458482072872e-03    10  1  9  9
  6.851886134087e-04    10  1  10  1
 -2.680507993827e-03    10  2  2  1
 -2.466188414137e-06    10  2  6  3
  1.756661235294e-04    10  2  7  4
  6.873576773109e-06    10  2  9  2
  1.561135938137e-04    10  2  10  2
 -2.211842738075e-03    10  3  3  1
 -3.256475484228e-07    10  3  5  4
  1.190575329588e-05    10  3  6  2
 -5.666116016612e-06    10  3  8  4
  9.370684269345e-05    10  3  9  3
  1.688309064275e-04    10  3  10  3
 -1.687917668529e-04    10  4  4  1
  2.185786557774e-05    10  4  5  3
  1.755774875870e-04    10  4  7  2
 -8.538221875412e-06    10  4  8  3
 -4.577297152480e-03    10  4  9  4
  1.317621582116e-02    10  4  10  4
  4.192195936666e-03    10  5  4  3
  3.235638372963e-03    10  5  5  1
 -4.054831991982e-01    10  5  7  6
  6.250887742107e-04    10  5  8  1
 -1.555261567149e-03    10  5  9  5
  4.047221896309e-01    10  5  9  8
  4.437193848025e-01    10  5  10  5
  6.607664272667e-04    10  6  3  2
  7.693508674787e-04    10  6  6  1
 -2.500194638138e-02    10  6  7  5
 -5.505376102897e-04    10  6  8  7
  5.451303684160e-04    10  6  9  6
  2.516057351866e-02    10  6  10  6
 -4.289651912593e-04    10  7  4  2
 -2.499133268980e-02    10  7  6  5
  7.524266442113e-04    10  7  7  1
 -5.494564218613e-04    10  7  8  6
  5.429337429208e-04    10  7  9  7
  2.506315088415e-02    10  7  10  7
 -1.287762273272e-05    10  8  4  3
 -4.080798524496e-05    10  8  5  1
  1.440444580575e-03    10  8  7  6
  7.503721770317e-04    10  8  8  1
  2.491155147375e-02    10  8  9  5
 -3.476989715243e-04    10  8  9  8
 -1.620902952652e-03    10  8  10  5
  2.502613627690e-02    10  8  10  8
 -6.177460441266e-04    10  9  1  1
 -8.735320836889e-04    10  9  2  2
 -4.773631959375e-05    10  9  3  3
  1.011161701365e-02    10  9  4  4
 -1.814181933536e-03    10  9  5  5
 -1.633968329864e-03    10  9  6  6
 -1.628283036196e-03    10  9  7  7
  2.492128482804e-02    10  9  8  5
 -5.301856104115e-04    10  9  8  8
  7.461491254483e-04    10  9  9  1
 -5.421210291435e-04    10  9  9  9
 -4.148386722414e-05    10  9  10  1
  2.503706869709e-02    10  9  10  9
  2.773312919492e-01    10  10  1  1
  2.679560658093e-01    10  10  2  2
  2.700728771429e-01    10  10  3  3
  5.667700556021e-01    10  10  4  4
  5.911742378693e-01    10  10  5  5
  5.535838397113e-01    10  10  6  6
  5.524070749683e-01    10  10  7  7
 -1.403704830263e-03    10  10  8  5
  5.522350443951e-01    10  10  8  8
  1.804195779735e-04    10  10  9  1
  5.522759473390e-01    10  10  9  9
  2.666304443081e-03    10  10  10  1
 -1.879496696289e-03    10  10  10  9
  5.943923464352e-01    10  10  10  10
  1.798197343557e-03    11  1  3  1
  2.503464843484e-04    11  1  5  4
  1.066112369795e-04    11  1  6  2
 -5.323821720194e-04    11  1  8  4
  9.469019048125e-05    11  1  9  3
 -8.199862023633e-05    11  1  10  3
  5.613004730097e-04    11  1  11  1
  2.475986714712e-03    11  2  3  2
  5.617572452296e-05    11  2  6  1
  3.831238036545e-04    11  2  7  5
  1.865961661725e-05    11  2  8  7
 -1.709634741808e-05    11  2  9  6
 -3.800542329830e-04    11  2  10  6
  1.875082438788e-04    11  2  11  2
  6.008358051895e-03    11  3  1  1
  6.726325642439e-03    11  3  2  2
  6.414246278246e-03    11  3  3  3
  4.576230791679e-04    11  3  4  4
  4.617887582825e-04    11  3  5  5
  4.815860212400e-04    11  3  6  6
  4.702082960838e-04    11  3  7  7
 -4.846105453803e-06    11  3  8  5
  4.683991409111e-04    11  3  8  8
  7.422880368835e-06    11  3  9  1
  4.748596326199e-04    11  3  9  9
 -2.563121722862e-04    11  3  10  1
  6.544232674647e-07    11  3  10  9
  4.790727193021e-04    11  3  10  10
  5.961003223371e-04    11  3  11  3
 -4.182702783261e-03    11  4  4  3
 -3.275370547488e-03    11  4  5  1
  4.097780782537e-01    11  4  7  6
 -1.280223174462e-03    11  4  8  1
 -1.038736720858e-02    11  4  9  5
 -4.100259109465e-01    11  4  9  8
 -4.187015497046e-01    11  4  10  5
 -1.035308828397e-02    11  4  10  8
  4.488697077302e-01    11  4  11  4
  2.021562585788e-04    11  5  4  1
 -7.072897063323e-06    11  5  5  3
 -1.705243080188e-04    11  5  7  2
  5.801864510437e-06    11  5  8  3
  4.551580641152e-03    11  5  9  4
 -1.317238087377e-02    11  5  10  4
  1.317475950606e-02    11  5  11  5
  3.157255061109e-03    11  6  2  1
  3.924696425008e-05    11  6  6  3
  1.996806880501e-02    11  6  7  4
  3.360618032353e-04    11  6  9  2
  1.824204860681e-04    11  6  10  2
  2.008710702711e-02    11  6  11  6
 -1.878335731124e-04    11  7  5  2
  1.994243495224e-02    11  7  6  4
  2.487753296803e-06    11  7  7  3
 -3.354541197721e-04    11  7  8  2
  2.000493812089e-02    11  7  11  7
 -4.593286337538e-04    11  8  4  1
  5.055353548975e-05    11  8  5  3
  3.433499027275e-04    11  8  7  2
  3.918428721747e-05    11  8  8  3
 -2.008745540127e-02    11  8  9  4
  4.586226454662e-03    11  8  10  4
 -4.558717617810e-03    11  8  11  5
  2.017375236996e-02    11  8  11  8
  1.604926615662e-03    11  9  3  1
  4.561712786158e-03    11  9  5  4
 -3.291877095276e-04    11  9  6  2
 -2.011322636330e-02    11  9  8  4
  9.505361459734e-06    11  9  9  3
  1.580950693980e-05    11  9  10  3
  5.629825421326e-04    11  9  11  1
  2.021710861241e-02    11  9  11  9
 -9.754291775230e-04    11  10  3  1
 -1.317670919388e-02    11  10  5  4
  1.721091239931e-04    11  10  6  2
  4.592886941278e-03    11  10  8  4
  2.741819343008e-05    11  10  9  3
  1.778239817917e-05    11  10  10  3
 -2.268732632261e-04    11  10  11  1
 -4.623710513172e-03    11  10  11  9
  1.329974716440e-02    11  10  11  10
  2.765757316838e-01    11  11  1  1
  2.673761055415e-01    11  11  2  2
  2.704405409008e-01    11  11  3  3
  5.973121819440e-01    11  11  4  4
  5.665203629308e-01    11  11  5  5
  5.582628267296e-01    11  11  6  6
  5.570741340635e-01    11  11  7  7
  1.061180361589e-02    11  11  8  5
  5.579221711011e-01    11  11  8  8
  8.391208045332e-04    11  11  9  1
  5.579685813875e-01    11  11  9  9
  2.667363206268e-03    11  11  10  1
  1.020484019868e-02    11  11  10  9
  5.694968612366e-01    11  11  10  10
  5.496297807407e-04    11  11  11  3
  6.003269773597e-01    11  11  11  11
  6.663509021897e-02    12  1  3  2
  2.416873579303e-04    12  1  6  1
 -7.645225602833e-04    12  1  7  5
 -3.658760625810e-05    12  1  8  7
  1.321505737835e-05    12  1  9  6
  6.763567302440e-04    12  1  10  6
  2.545141720203e-03    12  1  11  2
  6.821570810812e-02    12  1  12  1
  8.403660206613e-02    12  2  3  1
  5.631211477257e-04    12  2  5  4
  9.383492814888e-05    12  2  6  2
 -1.443915224513e-03    12  2  8  4
 -2.042784815066e-03    12  2  9  3
 -2.265882384754e-03    12  2  10  3
  2.227821030054e-03    12  2  11  1
  1.243076644572e-03    12  2  11  9
 -7.423661471957e-04    12  2  11  10
  8.948782375939e-02    12  2  12  2
  2.118539413371e-01    12  3  2  1
  6.592263034985e-04    12  3  6  3
  3.059573507251e-03    12  3  7  4
  5.856075585876e-05    12  3  9  2
 -3.128790998601e-03    12  3  10  2
  2.739308039716e-03    12  3  11  6
  2.253318741883e-01    12  3  12  3
  2.048922994552e-05    12  4  5  2
  1.761431902330e-04    12  4  6  4
  1.457396647887e-04    12  4  7  3
  5.336193857256e-05    12  4  8  2
  1.882616910999e-04    12  4  11  7
  1.940042127981e-04    12  4  12  4
  8.091313412827e-06    12  5  4  2
  4.423603241302e-04    12  5  6  5
 -3.555597148095e-05    12  5  7  1
  9.716885571033e-06    12  5  8  6
 -1.083676466831e-05    12  5  9  7
 -4.488659647608e-04    12  5  10  7
  3.959212794202e-05    12  5  12  5
  1.744693532702e-03    12  6  1  1
  1.783480343752e-03    12  6  2  2
  1.860814788462e-03    12  6  3  3
  5.925343792976e-03    12  6  4  4
  5.893787160772e-03    12  6  5  5
  6.817445431276e-03    12  6  6  6
  6.785299132275e-03    12  6  7  7
 -1.757807419875e-05    12  6  8  5
  6.350873232102e-03    12  6  8  8
 -1.908118852933e-05    12  6  9  1
  6.352154292249e-03    12  6  9  9
  2.714409083905e-05    12  6  10  1
 -2.755036943257e-05    12  6  10  9
  5.965316098542e-03    12  6  10  10
  1.856548513650e-04    12  6  11  3
  6.006516498342e-03    12  6  11  11
  2.116088051953e-04    12  6  12  6
  2.450113299193e-04    12  7  4  3
 -1.274550530221e-05    12  7  5  1
  5.648982385418e-03    12  7  7  6
  2.268099301760e-05    12  7  8  1
  9.789044125635e-06    12  7  9  5
 -5.203860771094e-03    12  7  9  8
 -4.731138852476e-03    12  7  10  5
  1.639411734956e-05    12  7  10  8
  4.770122356071e-03    12  7  11  4
  2.328619580153e-04    12  7  12  7
 -2.390800460423e-06    12  8  4  2
  8.425344646684e-06    12  8  6  5
  6.427666803736e-08    12  8  7  1
  2.153590970386e-04    12  8  8  6
 -2.145385884412e-04    12  8  9  7
 -8.199324427507e-06    12  8  10  7
 -3.099922725368e-06    12  8  12  5
  1.456468486833e-05    12  8  12  8
 -8.616167615684e-04    12  9  3  2
 -3.833570635548e-06    12  9  6  1
 -1.095974333292e-06    12  9  7  5
 -2.137442644628e-04    12  9  8  7
  2.151012239135e-04    12  9  9  6
  2.040262641569e-06    12  9  10  6
 -3.186444065583e-05    12  9  11  2
 -8.761094350383e-04    12  9  12  1
  2.914854276108e-05    12  9  12  9
 -1.881444306894e-03    12  10  3  2
  1.830389933704e-05    12  10  6  1
 -4.473555266710e-04    12  10  7  5
 -7.770006864378e-06    12  10  8  7
  9.375776963291e-06    12  10  9  6
  4.591755806044e-04    12  10  10  6
 -8.876493154961e-05    12  10  11  2
 -1.942668291708e-03    12  10  12  1
  2.958931089870e-05    12  10  12  9
  9.426870286363e-05    12  10  12  10
  8.355629107150e-03    12  11  2  1
  1.098717318313e-04    12  11  6  3
  3.483098882193e-04    12  11  7  4
 -2.743127002378e-05    12  11  9  2
 -1.551949253184e-04    12  11  10  2
  3.536954251108e-04    12  11  11  6
  9.088743249334e-03    12  11  12  3
  4.599064424008e-04    12  11  12  11
  5.559060088941e-01    12  12  1  1
  5.578592784391e-01    12  12  2  2
  5.674385999929e-01    12  12  3  3
  2.658729303123e-01    12  12  4  4
  2.646324836590e-01    12  12  5  5
  2.591126731107e-01    12  12  6  6
  2.592558573355e-01    12  12  7  7
 -7.816514028175e-04    12  12  8  5
  2.590503403421e-01    12  12  8  8
 -1.558120797528e-03    12  12  9  1
  2.591014815711e-01    12  12  9  9
 -2.065224720762e-03    12  12  10  1
 -3.741959778538e-04    12  12  10  9
  2.646692186271e-01    12  12  10  10
  7.699718104284e-03    12  12  11  3
  2.647375619298e-01    12  12  11  11
  2.113185370050e-03    12  12  12  6
  5.840006110343e-01    12  12  12  12
 -2.455048892794e-04    13  1  5  2
  8.796447013866e-04    13  1  6  4
 -1.093907439388e-03    13  1  7  3
 -8.736066755408e-04    13  1  8  2
  8.042335997231e-04    13  1  11  7
 -1.540598251531e-03    13  1  12  4
  2.580123413450e-02    13  1  13  1
 -3.383154302374e-03    13  2  4  3
 -1.578118522070e-03    13  2  5  1
  3.848090960438e-02    13  2  7  6
 -7.223112636860e-04    13  2  8  1
  8.080487000574e-04    13  2  9  5
 -3.840412238308e-02    13  2  9  8
 -4.004297487552e-02    13  2  10  5
  7.714108118122e-04    13  2  10  8
  3.928233498824e-02    13  2  11  4
 -9.691148838585e-04    13  2  12  7
  3.622489728186e-02    13  2  13  2
 -7.157025567041e-04    13  3  4  2
 -3.559700083981e-04    13  3  6  5
 -4.407075198525e-04    13  3  7  1
 -9.333698565101e-06    13  3  8  6
  3.342246107857e-06    13  3  9  7
  3.295403156581e-04    13  3  10  7
  1.082077855027e-06    13  3  12  5
 -6.376701418562e-06    13  3  12  8
  6.600213833777e-03    13  3  13  3
 -2.165504341081e-03    13  4  3  2
 -3.666313676091e-04    13  4  6  1
  8.682898065222e-03    13  4  7  5
  3.723823922863e-04    13  4  8  7
 -3.695956836816e-04    13  4  9  6
 -8.720708714733e-03    13  4  10  6
  5.608128172188e-04    13  4  11  2
 -2.187139950586e-03    13  4  12  1
  1.996683189424e-05    13  4  12  9
 -1.352462490437e-04    13  4  12  10
  1.200741148087e-02    13  4  13  4
 -4.959228139615e-04    13  5  2  1
 -6.804644355418e-05    13  5  6  3
 -3.066530838119e-03    13  5  7  4
 -6.680568794961e-05    13  5  9  2
 -4.709608091444e-04    13  5  10  2
 -3.098192055565e-03    13  5  11  6
 -4.017026527088e-04    13  5  12  3
 -3.785386915017e-05    13  5  12  11
  7.715564100788e-03    13  5  13  5
 -1.696252570434e-04    13  6  4  1
 -7.361303281230e-06    13  6  5  3
  6.497353318816e-04    13  6  7  2
 -6.501693649513e-05    13  6  8  3
 -6.983889479937e-03    13  6  9  4
  3.450807210423e-03    13  6  10  4
 -3.435915723733e-03    13  6  11  5
  7.002782494951e-03    13  6  11  8
  1.194914058717e-02    13  6  13  6
 -2.957182470728e-03    13  7  3  1
 -3.422587219827e-03    13  7  5  4
  6.374945071965e-04    13  7  6  2
  7.028798298302e-03    13  7  8  4
  1.378682579873e-04    13  7  9  3
  6.332203212933e-05    13  7  10  3
 -2.974108202891e-04    13  7  11  1
 -7.045189872669e-03    13  7  11  9
  3.488236087611e-03    13  7  11  10
 -2.682270324518e-03    13  7  12  2
  1.203597365904e-02    13  7  13  7
 -5.099066055109e-03    13  8  2  1
  8.281084249426e-05    13  8  6  3
 -6.888225927928e-03    13  8  7  4
 -6.579510650134e-04    13  8  9  2
 -9.724955624833e-05    13  8  10  2
 -6.904682245924e-03    13  8  11  6
 -3.981426716815e-03    13  8  12  3
 -1.727328716269e-04    13  8  12  11
  2.228009839304e-03    13  8  13  5
  1.190866756953e-02    13  8  13  8
 -1.030467938192e-04    13  9  5  2
  6.856452094611e-03    13  9  6  4
 -1.246211979156e-04    13  9  7  3
 -6.600296264094e-04    13  9  8  2
  6.864584987645e-03    13  9  11  7
 -5.126766562411e-05    13  9  12  4
  1.589023706895e-03    13  9  13  1
  1.186097875644e-02    13  9  13  9
 -4.792600962489e-04    13  10  5  2
  3.129085533863e-03    13  10  6  4
  2.255409168270e-05    13  10  7  3
 -9.575883556881e-05    13  10  8  2
  3.146959638006e-03    13  10  11  7
 -1.448515627130e-05    13  10  12  4
  6.516555296892e-04    13  10  13  1
  2.316973399514e-03    13  10  13  9
  7.743572883684e-03    13  10  13  10
  6.453171896822e-04    13  11  4  2
  8.675502366046e-03    13  11  6  5
 -3.704355287943e-04    13  11  7  1
  3.717620639514e-04    13  11  8  6
 -3.698418873684e-04    13  11  9  7
 -8.688556128688e-03    13  11  10  7
  1.672412253691e-04    13  11  12  5
  1.024836809578e-06    13  11  12  8
 -4.061738416573e-04    13  11  13  3
  1.193371009928e-02    13  11  13  11
 -9.348939029366e-04    13  12  4  1
 -1.218597860533e-04    13  12  5  3
 -4.978958434347e-04    13  12  7  2
  1.657533323633e-04    13  12  8  3
  2.962815494341e-04    13  12  9  4
 -1.749697263638e-04    13  12  10  4
  1.540411957073e-04    13  12  11  5
 -2.841597841291e-04    13  12  11  8
 -4.883703971605e-04    13  12  13  6
  7.816924390347e-03    13  12  13  12
  3.780107443948e-01    13  13  1  1
  3.726445036831e-01    13  13  2  2
  3.623054754579e-01    13  13  3  3
  4.434671430309e-01    13  13  4  4
  4.494549056801e-01    13  13  5  5
  4.412218712593e-01    13  13  6  6
  4.405942627996e-01    13  13  7  7
 -7.749055922970e-03    13  13  8  5
  4.398774576226e-01    13  13  8  8
 -8.313621560330e-05    13  13  9  1
  4.399323222550e-01    13  13  9  9
  1.918308655860e-03    13  13  10  1
 -7.837269945713e-03    13  13  10  9
  4.512285373446e-01    13  13  10  10
  1.562603554160e-03    13  13  11  3
  4.444372723212e-01    13  13  11  11
  3.778499735325e-03    13  13  12  6
  3.628428640382e-01    13  13  12  12
  4.334556260486e-01    13  13  13  13
 -4.309814377316e-02    14  1  1  1
 -3.937461240321e-03    14  1  2  2
 -5.233762757634e-02    14  1  3  3
 -2.010582571344e-02    14  1  4  4
 -2.008496609291e-02    14  1  5  5
 -1.643115735892e-02    14  1  6  6
 -1.641824307098e-02    14  1  7  7
 -5.090649700610e-04    14  1  8  5
 -1.647708498744e-02    14  1  8  8
  7.154806229836e-04    14  1  9  1
 -1.647132038332e-02    14  1  9  9
 -2.918953378692e-04    14  1  10  1
 -5.664042778832e-04    14  1  10  9
 -2.018988918708e-02    14  1  10  10
  5.396520501745e-04    14  1  11  3
 -1.976302008835e-02    14  1  11  11
 -1.586723846561e-04    14  1  12  6
 -3.087204940815e-02    14  1  12  12
 -2.353369093752e-02    14  1  13  13
  1.046337497737e-01    14  1  14  1
  8.530686602629e-02    14  2  2  1
 -1.022522511178e-04    14  2  6  3
  1.079809230990e-03    14  2  7  4
  3.434484814505e-04    14  2  9  2
 -8.169670738680e-04    14  2  10  2
  9.360199170426e-04    14  2  11  6
  6.250523888932e-02    14  2  12  3
  2.681498170724e-03    14  2  12  11
  1.164151223977e-03    14  2  13  5
 -2.070597641825e-03    14  2  13  8
  7.804570382571e-02    14  2  14  2
 -1.288039687210e-02    14  3  3  1
 -4.348339737054e-04    14  3  5  4
  8.924496452574e-05    14  3  6  2
  5.584453433349e-04    14  3  8  4
  5.783438314129e-04    14  3  9  3
  4.150263927934e-04    14  3  10  3
  2.574887146917e-04    14  3  11  1
 -4.971718577784e-04    14  3  11  9
  4.115479890449e-04    14  3  11  10
 -3.053573799726e-03    14  3  12  2
  4.569344012599e-04    14  3  13  7
  2.613940042184e-02    14  3  14  3
 -2.071509992557e-04    14  4  4  1
 -7.297281538415e-05    14  4  5  3
 -2.273988056105e-05    14  4  7  2
  6.733999592012e-05    14  4  8  3
 -4.751800860651e-04    14  4  9  4
  3.482323668817e-04    14  4  10  4
 -3.599767159862e-04    14  4  11  5
  4.806868303047e-04    14  4  11  8
  2.221672216186e-04    14  4  13  6
  1.896127080520e-04    14  4  13  12
  1.251593959300e-04    14  4  14  4
 -4.347976696450e-04    14  5  4  3
 -3.931598054504e-04    14  5  5  1
 -4.150190865499e-03    14  5  7  6
 -4.335145326700e-05    14  5  8  1
 -3.705699838987e-04    14  5  9  5
  4.118028040205e-03    14  5  9  8
  4.797713639278e-03    14  5  10  5
 -3.726376657006e-04    14  5  10  8
 -4.164332327026e-03    14  5  11  4
 -2.294131819150e-04    14  5  12  7
  2.186788041221e-03    14  5  13  2
  5.992421621017e-04    14  5  14  5
 -5.749330020886e-07    14  6  3  2
  1.459075713472e-05    14  6  6  1
 -3.370948971137e-04    14  6  7  5
  1.684171398605e-04    14  6  8  7
 -1.682518363195e-04    14  6  9  6
  3.448832205475e-04    14  6  10  6
  2.450836486836e-06    14  6  11  2
 -9.223883190149e-06    14  6  12  1
 -6.081833208232e-06    14  6  12  9
  2.034965524434e-05    14  6  12  10
 -4.152246937299e-05    14  6  13  4
  2.372902666679e-05    14  6  14  6
  5.862722617022e-06    14  7  4  2
 -3.327739528951e-04    14  7  6  5
  1.884053052903e-05    14  7  7  1
  1.679266191823e-04    14  7  8  6
 -1.667639171388e-04    14  7  9  7
  3.381330158288e-04    14  7  10  7
 -2.446659145679e-05    14  7  12  5
  8.236708986772e-06    14  7  12  8
 -5.439623798646e-05    14  7  13  3
 -4.383249500859e-05    14  7  13  11
  2.548677104107e-05    14  7  14  7
  9.523367816472e-05    14  8  4  3
 -2.191905040664e-05    14  8  5  1
  5.147116270149e-03    14  8  7  6
  2.358558754070e-05    14  8  8  1
  3.364198460695e-04    14  8  9  5
 -5.470063740346e-03    14  8  9  8
 -4.730032863115e-03    14  8  10  5
  3.471291173906e-04    14  8  10  8
  4.729310571332e-03    14  8  11  4
  1.313983082515e-04    14  8  12  7
 -3.680351037085e-04    14  8  13  2
 -1.703863329450e-04    14  8  14  5
  1.268967037529e-04    14  8  14  8
  1.540676925816e-03    14  9  1  1
  1.285844217083e-03    14  9  2  2
  1.601356511451e-03    14  9  3  3
 -4.401785985026e-03    14  9  4  4
 -4.418109114364e-03    14  9  5  5
 -4.869751400839e-03    14  9  6  6
 -4.847208733637e-03    14  9  7  7
  3.349873478769e-04    14  9  8  5
 -5.181318786461e-03    14  9  8  8
  7.965211785939e-06    14  9  9  1
 -5.180668013394e-03    14  9  9  9
 -5.472844339829e-05    14  9  10  1
  3.530292267131e-04    14  9  10  9
 -4.471871549012e-03    14  9  10  10
 -4.233556251251e-05    14  9  11  3
 -4.466396898914e-03    14  9  11  11
 -1.153152830369e-04    14  9  12  6
  1.390462012734e-03    14  9  12  12
 -2.027420028050e-03    14  9  13  13
 -7.439959226583e-04    14  9  14  1
  1.311977723349e-04    14  9  14  9
  8.096354382944e-04    14  10  1  1
  3.657170494624e-04    14  10  2  2
  1.049633521903e-03    14  10  3  3
  5.875816254706e-03    14  10  4  4
  6.574002852580e-03    14  10  5  5
  5.813943477338e-03    14  10  6  6
  5.785427892760e-03    14  10  7  7
 -3.806824690837e-04    14  10  8  5
  5.768025840715e-03    14  10  8  8
 -4.794974893237e-05    14  10  9  1
  5.768313248307e-03    14  10  9  9
 -2.554598621445e-04    14  10  10  1
 -4.048691467442e-04    14  10  10  9
  6.641542191843e-03    14  10  10  10
  2.269444124788e-04    14  10  11  3
  5.975436467877e-03    14  10  11  11
  1.821354222073e-04    14  10  12  6
  9.937789402882e-04    14  10  12  12
  3.395493648767e-03    14  10  13  13
 -1.604481977327e-03    14  10  14  1
 -1.121125025404e-04    14  10  14  9
  4.446494856468e-04    14  10  14  10
  7.776492059864e-04    14  11  3  1
 -3.797267794320e-04    14  11  5  4
 -1.284030887378e-05    14  11  6  2
  4.909845561041e-04    14  11  8  4
 -6.616393470876e-05    14  11  9  3
  2.425952792925e-05    14  11  10  3
 -1.268098473058e-04    14  11  11  1
 -5.064903479268e-04    14  11  11  9
  3.782090435491e-04    14  11  11  10
  9.729646894733e-04    14  11  12  2
  2.140432415038e-04    14  11  13  7
  6.531788377439e-04    14  11  14  3
  1.198858977847e-04    14  11  14  11
  8.557494521151e-03    14  12  3  2
 -6.946538100740e-06    14  12  6  1
 -2.456823121622e-04    14  12  7  5
  1.662401885386e-05    14  12  8  7
 -1.772802591690e-05    14  12  9  6
  2.201177481458e-04    14  12  10  6
  4.995148363872e-04    14  12  11  2
  8.264526291798e-03    14  12  12  1
 -7.111006378128e-05    14  12  12  9
 -1.142169514124e-05    14  12  12  10
 -2.507479791136e-04    14  12  13  4
  1.661633301028e-04    14  12  14  6
  1.870417901698e-02    14  12  14  12
  4.944413788087e-04    14  13  5  2
  2.237657355779e-04    14  13  6  4
 -1.586007679640e-04    14  13  7  3
 -2.882416061964e-04    14  13  8  2
  2.078325091682e-04    14  13  11  7
 -1.371341795310e-04    14  13  12  4
  2.911024991213e-03    14  13  13  1
  3.553286495106e-04    14  13  13  9
 -7.567883812185e-05    14  13  13  10
  6.356820591613e-03    14  13  14  13
  5.942255840535e-01    14  14  1  1
  5.725842284849e-01    14  14  2  2
  5.629651859251e-01    14  14  3  3
  2.752702861308e-01    14  14  4  4
  2.750500862358e-01    14  14  5  5
  2.668522550193e-01    14  14  6  6
  2.669759993228e-01    14  14  7  7
 -1.017987792142e-03    14  14  8  5
  2.668938690483e-01    14  14  8  8
 -1.550149380404e-03    14  14  9  1
  2.669409599520e-01    14  14  9  9
 -1.647619136508e-03    14  14  10  1
 -5.354829524930e-04    14  14  10  9
  2.750800277051e-01    14  14  10  10
  6.363315669350e-03    14  14  11  3
  2.740072471396e-01    14  14  11  11
  1.908181945398e-03    14  14  12  6
  5.637843792514e-01    14  14  12  12
  3.777283737723e-01    14  14  13  13
 -8.096133533697e-02    14  14  14  1
  1.859495841898e-03    14  14  14  9
  2.258164831176e-03    14  14  14  10
  6.675539091972e-01    14  14  14  14
 -5.587099681884e-03    15  1  4  3
 -3.233180000838e-03    15  1  5  1
  5.144985398847e-02    15  1  7  6
 -7.964562985895e-04    15  1  8  1
  5.277564537633e-04    15  1  9  5
 -5.140427286217e-02    15  1  9  8
 -5.503083905506e-02    15  1  10  5
  5.024154974294e-04    15  1  10  8
  5.417878054555e-02    15  1  11  4
 -1.554681148382e-03    15  1  12  7
  5.344807684055e-02    15  1  13  2
  4.171222659051e-03    15  1  14  5
 -6.802628029561e-04    15  1  14  8
  8.355023616629e-02    15  1  15  1
 -3.893610939647e-04    15  2  5  2
  1.927628681350e-03    15  2  6  4
 -1.538250822972e-03    15  2  7  3