 &FCI NORB=  31,NELEC=32,MS2=0,
  ORBSYM=1,1,1,1,1,1,1,1,1,1,1,1,1,1,1,1,1,1,1,1,1,1,1,1,1,1,1,1,1,1,1,
  ISYM=1,
 &END
 0.4976824054063403    1    1    1    1
 0.5027848966264176    1    1    2    2
 0.3072105497355674    1    1    3    3
 0.003053642417100217    1    1    4    1
 0.3121441833679885    1    1    4    4
 0.3110376656485304    1    1    5    5
 0.3040893104392718    1    1    6    6
 0.3042064799140713    1    1    7    7
 0.3073668051411738    1    1    8    8
 0.0006157340965913569    1    1    9    1
 -0.001677841835425254    1    1    9    4
 0.3030388126458797    1    1    9    9
 0.001996972929711204    1    1   10    5
 0.3032372642962478    1    1   10   10
 0.004071682153086729    1    1   11    3
 0.4715910893047929    1    1   11   11
 -0.0005100074682221529    1    1   12    6
 0.4859630616335773    1    1   12   12
 -0.003221409768805641    1    1   13    5
 -0.009150940034866493    1    1   13   10
 0.457783262145518    1    1   13   13
 0.4111082435040905    1    1   14   14
 -0.01467094536147054    1    1   15    1
 -0.01199222226089178    1    1   15    4
 0.007335858681354585    1    1   15    9
 0.4773568190489747    1    1   15   15
 0.0005179886309393764    1    1   16    2
 0.363311091684893    1    1   16   16
 0.08543795404899018    1    1   17   14
 0.3891420755698612    1    1   17   17
 -0.03489417494924883    1    1   18    2
 0.08525066898738926    1    1   18   16
 0.463701601198185    1    1   18   18
 -0.01193888447329119    1    1   19    3
 0.1010551955237752    1    1   19   11
 0.4156347210163731    1    1   19   19
 -0.004402973412807301    1    1   20    5
 -0.003965041048883422    1    1   20   10
 -0.1004601365131979    1    1   20   13
 0.4217158436829348    1    1   20   20
 0.05958008636590754    1    1   21    1
 -0.01034157091661098    1    1   21    4
 0.005083293863765014    1    1   21    9
 -0.05749848713151646    1    1   21   15
 0.4759430757657919    1    1   21   21
 -0.003950165583791492    1    1   22    6
 -0.09981829738976548    1    1   22   12
 0.4257529715921006    1    1   22   22
 -0.01615703213491819    1    1   23    1
 0.004627754923100533    1    1   23    4
 -0.001747343536832793    1    1   23    9
 -0.001415681165982797    1    1   23   15
 0.02699246543946589    1    1   23   21
 0.3089584054117248    1    1   23   23
 0.009819241622142993    1    1   24    7
 0.2956836656604498    1    1   24   24
 -0.009011676026905609    1    1   25    8
 0.2991022392690997    1    1   25   25
 -0.0009862443532278971    1    1   26    5
 0.01219721863623358    1    1   26   10
 0.008798576518749738    1    1   26   13
 0.02096805109560971    1    1   26   20
 0.2933182906868083    1    1   26   26
 0.01177229482446336    1    1   27    3
 -0.01041548942707543    1    1   27   11
 0.02042975644608503    1    1   27   19
 0.2883673796188864    1    1   27   27
 -0.003086743194740655    1    1   28    1
 -0.0008228763985952209    1    1   28    4
 -0.01237770102394728    1    1   28    9
 0.01399302057145792    1    1   28   15
 0.01824590497139904    1    1   28   21
 -0.0007781947223823914    1    1   28   23
 0.2921255978192079    1    1   28   28
 -0.005184474598601446    1    1   29    5
 0.001563672645802527    1    1   29   10
 -0.01664592432219075    1    1   29   13
 -0.008153752724534599    1    1   29   20
 -0.004911456762081589    1    1   29   26
 0.3082459150030956    1    1   29   29
 -0.01111951714337758    1    1   30    6
 0.005079491911491657    1    1   30   12
 -0.00106768915296909    1    1   30   22
 0.2934465577105083    1    1   30   30
 -0.05104717144885403    1    1   31   14
 -0.05814132216703716    1    1   31   17
 0.417060378961893    1    1   31   31
 0.2612861647668832    2    1    2    1
 -0.001795439254807936    2    1    4    2
 0.004462756176553746    2    1    6    3
 -0.005017232308145637    2    1    8    7
 0.002071284536549037    2    1    9    2
 0.003729120413734141    2    1   11    6
 -5.748978608442548e-05    2    1   12    3
 -0.2487219918947388    2    1   12   11
 0.002571952768220334    2    1   14    5
 -0.01016434683937376    2    1   14   10
 0.1793138767587047    2    1   14   13
 0.04202080942814179    2    1   15    2
 0.02235433854280641    2    1   16    1
 -0.003600953295070594    2    1   16    4
 0.007580447985718075    2    1   16    9
 0.132705381094387    2    1   16   15
 0.002406293652412759    2    1   17    5
 -0.002379699039620099    2    1   17   10
 0.1559250095085762    2    1   17   13
 -0.01582238139634221    2    1   18    1
 -0.005956306255935124    2    1   18    4
 0.00274135892340451    2    1   18    9
 0.2075312468434049    2    1   18   15
 -0.009413804599965089    2    1   19    6
 -0.1220790791172251    2    1   19   12
 -0.08909432922589905    2    1   20   14
 -0.1027779531648591    2    1   20   17
 0.07341600928838025    2    1   21    2
 -0.05087478577116948    2    1   21   16
 -0.1304543285779257    2    1   21   18
 -0.006658696353948008    2    1   22    3
 0.0866335319087516    2    1   22   11
 0.1858297809475527    2    1   22   19
 -0.006762101311671148    2    1   23    2
 -0.01618999325013725    2    1   23   16
 -0.02224246308151578    2    1   23   18
 0.004579908486033442    2    1   24    8
 -0.004959782298165819    2    1   25    7
 0.0102769350815058    2    1   25   24
 0.005668595204878311    2    1   26   14
 -0.001261768056096707    2    1   26   17
 -0.001587911213727686    2    1   27    6
 -0.005644072030675374    2    1   27   12
 -0.007057498062329753    2    1   27   22
 0.00232140292433439    2    1   28    2
 0.006174091166168592    2    1   28   16
 0.003117897813310721    2    1   28   18
 -0.002362155561421741    2    1   29   14
 0.0003496988200321087    2    1   29   17
 0.002480993806570466    2    1   30    3
 -0.006136506270470403    2    1   30   11
 -0.01012556769681158    2    1   30   19
 -0.004114930276448984    2    1   30   27
 0.005022266281330637    2    1   31    5
 -0.00321481288961114    2    1   31   10
 -0.07125351004291647    2    1   31   13
 0.162651493006705    2    1   31   20
 0.0227560294311691    2    1   31   26
 0.009743642747676246    2    1   31   29
 0.5027848966264173    2    2    1    1
 0.5102138439487167    2    2    2    2
 0.2942076536453131    2    2    3    3
 0.002647531711106393    2    2    4    1
 0.2997336216170584    2    2    4    4
 0.2985743842418104    2    2    5    5
 0.2928444553552256    2    2    6    6
 0.2930153179940217    2    2    7    7
 0.2943673223288428    2    2    8    8
 0.0009072990647580154    2    2    9    1
 -0.0007153153929719341    2    2    9    4
 0.2910659774560531    2    2    9    9
 0.001012660045648158    2    2   10    5
 0.2912321708628207    2    2   10   10
 0.003887720387984855    2    2   11    3
 0.4777574766634703    2    2   11   11
 -0.000699097358349311    2    2   12    6
 0.4940090482696908    2    2   12   12
 -0.002490443334596427    2    2   13    5
 -0.009403961130471723    2    2   13   10
 0.4624650159606084    2    2   13   13
 0.4096424794540826    2    2   14   14
 -0.004499028376958566    2    2   15    1
 -0.01181199829822834    2    2   15    4
 0.007568260221399987    2    2   15    9
 0.4811323113107496    2    2   15   15
 0.006481287364254303    2    2   16    2
 0.3571961612577911    2    2   16   16
 0.09534647180329556    2    2   17   14
 0.3852364142073268    2    2   17   17
 -0.02893077695747737    2    2   18    2
 0.0944201856057654    2    2   18   16
 0.4651189994226897    2    2   18   18
 -0.01216450862681195    2    2   19    3
 0.1090100276356216    2    2   19   11
 0.4186620743608947    2    2   19   19
 -0.003415275300187161    2    2   20    5
 -0.003578129554389685    2    2   20   10
 -0.1092005944899586    2    2   20   13
 0.4243404229488827    2    2   20   20
 0.06343694539539163    2    2   21    1
 -0.009120390489878425    2    2   21    4
 0.004885749470192761    2    2   21    9
 -0.06587042845333085    2    2   21   15
 0.4724147015894559    2    2   21   21
 -0.004332020640081132    2    2   22    6
 -0.1061804610334821    2    2   22   12
 0.4317954166748402    2    2   22   22
 -0.01576172758675131    2    2   23    1
 0.0007036458437360902    2    2   23    4
 -0.001880934283825619    2    2   23    9
 -0.005757562449732582    2    2   23   15
 0.0250107076459047    2    2   23   21
 0.3000262527026928    2    2   23   23
 0.005640269148313367    2    2   24    7
 0.2867437855471949    2    2   24   24
 -0.005112789169638897    2    2   25    8
 0.2880417535708659    2    2   25   25
 -0.0008398503555118009    2    2   26    5
 0.008174071408276022    2    2   26   10
 0.007836419834046256    2    2   26   13
 0.02123143472609455    2    2   26   20
 0.2832873582359314    2    2   26   26
 0.007859236225121852    2    2   27    3
 -0.008654173413629934    2    2   27   11
 0.01836287386005522    2    2   27   19
 0.2780131181178894    2    2   27   27
 -0.002054034971268745    2    2   28    1
 -0.0006516221355756535    2    2   28    4
 -0.008322507450159587    2    2   28    9
 0.01321707693131749    2    2   28   15
 0.01743342503158833    2    2   28   21
 -0.00186651537887029    2    2   28   23
 0.2821335698787624    2    2   28   28
 -0.001370600854116452    2    2   29    5
 0.001466935006491125    2    2   29   10
 -0.01502850918526797    2    2   29   13
 -0.005624641656914845    2    2   29   20
 -0.003647888036262324    2    2   29   26
 0.2972752973569863    2    2   29   29
 -0.006987375367633326    2    2   30    6
 0.00614280017100247    2    2   30   12
 -0.0006127404755104228    2    2   30   22
 0.2843955427276429    2    2   30   30
 -0.0546645464959216    2    2   31   14
 -0.06577678396973792    2    2   31   17
 0.4167942399508147    2    2   31   31
 0.00190330751013771    3    1    3    1
 -0.002012819575840885    3    1    4    3
 0.0002732234047680314    3    1    6    2
 0.002017298345696131    3    1    8    5
 -0.001237729393782476    3    1    9    3
 -0.001255822012678292    3    1   10    8
 0.0009671150612548573    3    1   11    1
 0.0003237283274724206    3    1   11    4
 0.0004429849972276101    3    1   11    9
 -0.000856746641788561    3    1   12    2
 0.001342739715164861    3    1   13    8
 0.0008318287525550249    3    1   14    7
 -0.00142933496376811    3    1   15    3
 -0.001245613128662726    3    1   15   11
 0.001585333776487128    3    1   16    6
 0.0006121355435907248    3    1   16   12
 -0.002029663818701554    3    1   17    7
 -0.00141680129759952    3    1   18    6
 0.0008909870399953157    3    1   18   12
 -0.0006151553924096882    3    1   19    1
 -0.0004587948565875313    3    1   19    4
 -0.0007608683492258031    3    1   19    9
 0.0006114283976819122    3    1   19   15
 0.001564084414615925    3    1   20    8
 -0.001853992443869142    3    1   21    3
 -0.0005499486529858191    3    1   21   11
 0.001426334479295843    3    1   21   19
 -0.000682624680545425    3    1   22    2
 0.0001366587509652179    3    1   22   16
 0.0001793227448940647    3    1   22   18
 -0.001418643888411073    3    1   23    3
 2.177567878196514e-05    3    1   23   11
 0.000126485895751124    3    1   23   19
 0.001079574681699786    3    1   24   14
 -0.001381382775816569    3    1   24   17
 -0.001828408531150537    3    1   25    5
 0.0009330385617825636    3    1   25   10
 2.92394353157422e-05    3    1   25   13
 -2.594151854165856e-05    3    1   25   20
 -0.0009730679270582159    3    1   26    8
 0.0005419052413793264    3    1   26   25
 0.0005483901506659561    3    1   27    1
 -0.001767599926170307    3    1   27    4
 -0.0007675167236252731    3    1   27    9
 -0.0001454730097797754    3    1   27   15
 -0.0001705983307016749    3    1   27   21
 -0.0006286115880243003    3    1   27   23
 0.001104167480027529    3    1   28    3
 -0.0001943960005089131    3    1   28   11
 0.0003374236008586375    3    1   28   19
 0.0004054594548076038    3    1   28   27
 -0.001999431408919787    3    1   29    8
 0.0007400869381625919    3    1   29   25
 -3.05206204139619e-05    3    1   30    2
 -0.001407703969791153    3    1   30   16
 0.001064362324703445    3    1   30   18
 -0.001622651759230344    3    1   31    7
 -0.0006122451948039252    3    1   31   24
 0.0003208616868159001    3    2    3    2
 3.376565473717808e-05    3    2    6    1
 -0.0008388444989878282    3    2    6    4
 -0.0008254054329863282    3    2    7    5
 0.0005956553075944499    3    2    9    6
 -0.0005873032741489504    3    2   10    7
 0.0003990999095868234    3    2   11    2
 -0.0003867889326739863    3    2   12    1
 -5.865674567959141e-05    3    2   12    4
 1.042278458360268e-05    3    2   12    9
 -0.000265102741996231    3    2   13    7
 0.00133917169583858    3    2   14    8
 -0.0002229210589857849    3    2   15    6
 0.0008685837896688298    3    2   15   12
 -0.001592747418200592    3    2   16    3
 -0.0004988666177927863    3    2   16   11
 -0.001288929077424722    3    2   17    8
 0.000866143497056969    3    2   18    3
 -0.0007671115660839805    3    2   18   11
 -0.0005903282905515311    3    2   19    2
 3.978230252546148e-05    3    2   19   16
 3.856107065739714e-05    3    2   19   18
 -0.0003523852870183351    3    2   20    7
 -0.0003298480815212228    3    2   21    6
 0.0001790547378729849    3    2   21   12
 -0.0006289146369988376    3    2   22    1
 -7.103269917435533e-05    3    2   22    4
 -1.970261429528066e-05    3    2   22    9
 0.0001685054218155215    3    2   22   15
 0.0005572074752298297    3    2   22   21
 -3.798023624543929e-05    3    2   23    6
 -0.0001603092479243121    3    2   23   12
 -2.391868722845461e-05    3    2   23   22
 -0.0001406828892298738    3    2   24    5
 -2.223715524846205e-05    3    2   24   10
 0.0007648793575892626    3    2   24   13
 0.001007273437178714    3    2   24   20
 0.000191161354411195    3    2   25   14
 0.0004950841582761413    3    2   25   17
 -5.372285500764775e-05    3    2   26    7
 -0.0004685941141528424    3    2   26   24
 -0.0001702228472245627    3    2   27    2
 -0.0001119672844832362    3    2   27   16
 0.0003614197066080697    3    2   27   18
 -3.464505454251145e-05    3    2   28    6
 -2.441274539835693e-05    3    2   28   12
 -9.225398165970461e-05    3    2   28   22
 0.0001550017291114328    3    2   29    7
 0.000476564364215601    3    2   29   24
 0.0002808735473305531    3    2   30    1
 6.798331370527961e-05    3    2   30    4
 -8.117334355577748e-07    3    2   30    9
 -0.0002599389950279308    3    2   30   15
 -0.0006790339972106432    3    2   30   21
 0.0008038769324030109    3    2   30   23
 0.0005354150268475985    3    2   30   28
 9.944007913103329e-05    3    2   31    8
 0.001202665958142119    3    2   31   25
 0.3072105497355673    3    3    1    1
 0.2942076536453129    3    3    2    2
 0.6291980068956504    3    3    3    3
 -0.0005099313735345624    3    3    4    1
 0.5877453562655842    3    3    4    4
 0.5914257020147567    3    3    5    5
 0.5881520775885752    3    3    6    6
 0.5862599237785998    3    3    7    7
 0.6301842214746523    3    3    8    8
 -0.005803495620453137    3    3    9    1
 -0.009311777470688955    3    3    9    4
 0.5976139226446824    3    3    9    9
 0.01032099622876594    3    3   10    5
 0.5987678037509133    3    3   10   10
 -0.01067858696595475    3    3   11    3
 0.2862436807433688    3    3   11   11
 0.01259531463674175    3    3   12    6
 0.2811972835051576    3    3   12   12
 -0.01034938592317269    3    3   13    5
 0.0009133271506021246    3    3   13   10
 0.311098655841147    3    3   13   13
 0.4216543531789254    3    3   14   14
 -0.04384908488849382    3    3   15    1
 0.01834153776122734    3    3   15    4
 -0.001324746263547225    3    3   15    9
 0.300891909346636    3    3   15   15
 -0.04045166441803141    3    3   16    2
 0.5005706506742275    3    3   16   16
 -0.1507574142677432    3    3   17   14
 0.4899644254646388    3    3   17   17
 -0.01457578781565247    3    3   18    2
 -0.1451460688863662    3    3   18   16
 0.3885385035620132    3    3   18   18
 0.01762725099890661    3    3   19    3
 -0.003081682130797002    3    3   19   11
 0.2901769702696523    3    3   19   19
 -0.00940180570804975    3    3   20    5
 -0.01184630498296119    3    3   20   10
 0.02762588784249565    3    3   20   13
 0.3287912527618256    3    3   20   20
 -0.01487407219253032    3    3   21    1
 -0.0005588571262991653    3    3   21    4
 0.005960444266353445    3    3   21    9
 0.03154397669600432    3    3   21   15
 0.347652462077823    3    3   21   21
 0.01506658727237232    3    3   22    6
 -0.009207668232550028    3    3   22   12
 0.2677459992589259    3    3   22   22
 -0.002708203997548734    3    3   23    1
 0.1330326444203765    3    3   23    4
 -0.003710950536910754    3    3   23    9
 0.02484421686555872    3    3   23   15
 0.009054589170908581    3    3   23   21
 0.4931803692609068    3    3   23   23
 0.1368974456272267    3    3   24    7
 0.505032624511739    3    3   24   24
 -0.1478149668693792    3    3   25    8
 0.5388348776749299    3    3   25   25
 0.00226833435023919    3    3   26    5
 0.1411076170943172    3    3   26   10
 0.007092312926120016    3    3   26   13
 0.003197344023869871    3    3   26   20
 0.5186050019072889    3    3   26   26
 0.147561444471267    3    3   27    3
 -0.02070960092423588    3    3   27   11
 0.02419235463081451    3    3   27   19
 0.5331394352857349    3    3   27   27
 -0.003389086359103129    3    3   28    1
 0.003322098092063515    3    3   28    4
 -0.1424928013106574    3    3   28    9
 0.005320453966578706    3    3   28   15
 0.01038263563952412    3    3   28   21
 0.005359419878208936    3    3   28   23
 0.5145804003632929    3    3   28   28
 -0.1316763518300536    3    3   29    5
 -0.002738338273406382    3    3   29   10
 -0.008011438848042477    3    3   29   13
 -0.01561930988207308    3    3   29   20
 -0.009550851656561459    3    3   29   26
 0.5155886057824272    3    3   29   29
 -0.1340861724475619    3    3   30    6
 -0.01525103738035836    3    3   30   12
 -0.00493396674306085    3    3   30   22
 0.5129518536362355    3    3   30   30
 -0.03614331502606372    3    3   31   14
 0.08767144218520387    3    3   31   17
 0.392958944062766    3    3   31   31
 0.003053642417100224    4    1    1    1
 0.002647531711106389    4    1    2    2
 -0.0005099313735345603    4    1    3    3
 0.002293044312511119    4    1    4    1
 0.001200602839642342    4    1    4    4
 0.00119561586609606    4    1    5    5
 0.002698868809594265    4    1    6    6
 0.002679121207773466    4    1    7    7
 -0.0005192096553301738    4    1    8    8
 -0.0006265491467074029    4    1    9    1
 0.001709829509582036    4    1    9    4
 0.000955807313272747    4    1    9    9
 -0.0017206722421816    4    1   10    5
 0.0009609643110061806    4    1   10   10
 0.0006949099848580657    4    1   11    3
 0.002613688710480524    4    1   11   11
 9.876216225551183e-05    4    1   12    6
 0.002270501916797187    4    1   12   12
 -0.001876431166591801    4    1   13    5
 -0.0003041444810534249    4    1   13   10
 0.0009022426929288565    4    1   13   13
 0.001232136749409589    4    1   14   14
 -0.004285821406565674    4    1   15    1
 -0.00189345310416565    4    1   15    4
 0.0006489852516454462    4    1   15    9
 0.004457652477938561    4    1   15   15
 -0.00216474362961365    4    1   16    2
 0.001624293520760032    4    1   16   16
 -0.0002537650230555318    4    1   17   14
 0.0004512495458868637    4    1   17   17
 -0.003443703100910118    4    1   18    2
 0.001260460173268357    4    1   18   16
 0.003529824391266032    4    1   18   18
 -0.0009977303962258133    4    1   19    3
 -0.0003167916726930136    4    1   19   11
 0.002633113252446318    4    1   19   19
 -0.002088815849624747    4    1   20    5
 -0.0003055857848340776    4    1   20   10
 0.0001595981949606413    4    1   20   13
 0.001337656311683029    4    1   20   20
 0.0005196522734696175    4    1   21    1
 -0.002520573647304339    4    1   21    4
 0.0005883187521462405    4    1   21    9
 0.001234138379339583    4    1   21   15
 0.006321261784891638    4    1   21   21
 0.0001626903584018405    4    1   22    6
 -0.0003006513525677999    4    1   22   12
 0.001839924061162139    4    1   22   22
 -0.0003616154568699182    4    1   23    1
 -0.0003839224993358387    4    1   23    4
 0.001968503002078876    4    1   23    9
 0.001159760332777132    4    1   23   15
 0.001295496873481709    4    1   23   21
 0.001150766021696516    4    1   23   23
 0.001233497787546676    4    1   24    7
 0.001506163321386813    4    1   24   24
 0.002472290889703624    4    1   25    8
 0.0007699437863677162    4    1   25   25
 -0.002163324943653452    4    1   26    5
 -0.0006815527150681642    4    1   26   10
 3.872740111786615e-05    4    1   26   13
 -1.12885012345609e-05    4    1   26   20
 0.001036128753731225    4    1   26   26
 -0.002321171276046152    4    1   27    3
 -0.0003393804440798801    4    1   27   11
 0.0002036328147927659    4    1   27   19
 0.0008133594474357769    4    1   27   27
 -3.026242470989216e-05    4    1   28    1
 -0.002076145247534709    4    1   28    4
 0.0006601339327419302    4    1   28    9
 0.0003522866158167153    4    1   28   15
 0.0003098410569503356    4    1   28   21
 -0.0002455334791555901    4    1   28   23
 0.001114055067560623    4    1   28   28
 0.00110327815526668    4    1   29    5
 0.002143566147678922    4    1   29   10
 -0.0009640822102193866    4    1   29   13
 -0.001023219083508285    4    1   29   20
 0.0003272884145560793    4    1   29   26
 0.001541541454629037    4    1   29   29
 -0.001200781867691053    4    1   30    6
 -2.004242549866739e-05    4    1   30   12
 4.393395553525869e-05    4    1   30   22
 0.001525583611677676    4    1   30   30
 0.0002943062064652893    4    1   31   14
 -0.0006969390659004518    4    1   31   17
 0.0006949092708732696    4    1   31   31
 -0.001795439254807939    4    2    2    1
 0.0006437590364648842    4    2    4    2
 1.016472405503341e-05    4    2    6    3
 9.731834558925416e-06    4    2    8    7
 2.243978112873164e-05    4    2    9    2
 -0.000210132896795895    4    2   11    6
 -7.106503761779801e-05    4    2   12    3
 0.001889500914920431    4    2   12   11
 -0.001182893265337775    4    2   14    5
 0.0001457063196734937    4    2   14   10
 -0.002399880896011345    4    2   14   13
 -0.002690133815775554    4    2   15    2
 -0.001287843960751439    4    2   16    1
 -0.0009745585605512144    4    2   16    4
 6.297674057739435e-06    4    2   16    9
 -0.0008385761662156885    4    2   16   15
 0.0003855844682198537    4    2   17    5
 0.00015909837548822    4    2   17   10
 -0.002026942151535969    4    2   17   13
 -0.002229846254506695    4    2   18    1
 0.0002827434494242761    4    2   18    4
 -5.236612037820249e-05    4    2   18    9
 -0.0005280661080884065    4    2   18   15
 0.0004079585336969718    4    2   19    6
 0.0006331508813946157    4    2   19   12
 0.0006673519410665328    4    2   20   14
 0.0008544633597458272    4    2   20   17
 0.0004435444360918286    4    2   21    2
 7.588757434913597e-05    4    2   21   16
 0.0002964011928765782    4    2   21   18
 -1.744929074670938e-05    4    2   22    3
 -0.0001352043590809077    4    2   22   11
 -0.001481707065664241    4    2   22   19
 -0.0003756685783958792    4    2   23    2
 0.0002862964862718811    4    2   23   16
 0.0005812128364141117    4    2   23   18
 -1.89178438184217e-05    4    2   24    8
 2.094851567655835e-05    4    2   25    7
 -5.264665674412381e-05    4    2   25   24
 -3.075464702671404e-05    4    2   26   14
 -1.415012029404527e-05    4    2   26   17
 -0.0001251982054576734    4    2   27    6
 0.0002644109931049282    4    2   27   12
 0.0002267294534405046    4    2   27   22
 -6.634233741947619e-05    4    2   28    2
 5.426000310544417e-05    4    2   28   16
 9.754354873975739e-05    4    2   28   18
 -0.0005155859625157728    4    2   29   14
 -0.0005143949251565645    4    2   29   17
 9.867282425054076e-07    4    2   30    3
 3.858095324580236e-05    4    2   30   11
 0.0002037241851273526    4    2   30   19
 -4.627965341644418e-05    4    2   30   27
 -0.0006556224204527181    4    2   31    5
 0.0001569746714291001    4    2   31   10
 0.000289012532139704    4    2   31   13
 -0.001761544568646859    4    2   31   20
 -0.0001685958467813155    4    2   31   26
 -0.001133169889651462    4    2   31   29
 -0.002012819575840888    4    3    3    1
 0.02037545724990144    4    3    4    3
 0.0008646242489881968    4    3    6    2
 -0.02053302179841909    4    3    8    5
 0.00623965648345816    4    3    9    3
 0.006164757332538443    4    3   10    8
 0.002107630931278799    4    3   11    1
 -0.0006475096547156747    4    3   11    4
 -0.0001088984573500358    4    3   11    9
 -0.001529376188291131    4    3   12    2
 0.0003325744455417961    4    3   13    8
 -0.006006830426542431    4    3   14    7
 0.001431616242352367    4    3   15    3
 -0.001392691834536261    4    3   15   11
 -0.007801650813620529    4    3   16    6
 -7.373783550095976e-06    4    3   16   12
 0.007194827222908299    4    3   17    7
 0.005024073555444647    4    3   18    6
 0.0008448385778076042    4    3   18   12
 -0.001170069373640983    4    3   19    1
 0.001124843522157915    4    3   19    4
 0.0001591720750698305    4    3   19    9
 0.001906280608102042    4    3   19   15
 0.0004278229614942631    4    3   20    8
 0.0001257540864475256    4    3   21    3
 -0.001431778672011555    4    3   21   11
 0.003114562845723905    4    3   21   19
 -0.0003864039936455554    4    3   22    2
 -7.932382637209993e-05    4    3   22   16
 0.0005886259538872591    4    3   22   18
 0.006677447688163924    4    3   23    3
 -0.0007443598541849479    4    3   23   11
 0.0008528809191783223    4    3   23   19
 -0.001339559235543846    4    3   24   14
 0.003359219691911389    4    3   24   17
 0.006670739407878452    4    3   25    5
 -0.001472357561960728    4    3   25   10
 0.003886430483511249    4    3   25   13
 0.00665452062182048    4    3   25   20
 0.001759536793609273    4    3   26    8
 -0.004590179614299408    4    3   26   25
 -0.00254385897728701    4    3   27    1
 0.006748238975077376    4    3   27    4
 0.001445324326691538    4    3   27    9
 0.003679697589824615    4    3   27   15
 0.005424686295410759    4    3   27   21
 0.01203084412245802    4    3   27   23
 -0.001633653231445851    4    3   28    3
 0.0004518936931822498    4    3   28   11
 -0.0006462394720019984    4    3   28   19
 -0.004972998567993114    4    3   28   27
 0.006415212745941513    4    3   29    8
 -0.01477722136271855    4    3   29   25
 -7.13744096582732e-06    4    3   30    2
 0.002317254028076059    4    3   30   16
 -0.00225496378139456    4    3   30   18
 0.001659699222050212    4    3   31    7
 0.004557033343475541    4    3   31   24
 0.3121441833679885    4    4    1    1
 0.2997336216170586    4    4    2    2
 0.5877453562655832    4    4    3    3
 0.00120060283964235    4    4    4    1
 0.6297761076552776    4    4    4    4
 0.6338709141492307    4    4    5    5
 0.5891699689836201    4    4    6    6
 0.5872879318937668    4    4    7    7
 0.5886441980431271    4    4    8    8
 -0.002374336121841583    4    4    9    1
 0.0007142494017370905    4    4    9    4
 0.5757554197430518    4    4    9    9
 0.0003437324603135932    4    4   10    5
 0.5768785388249853    4    4   10   10
 -0.009039551239259206    4    4   11    3
 0.2889033700942623    4    4   11   11
 0.01256716885318062    4    4   12    6
 0.2848194880687875    4    4   12   12
 -0.01155637100753353    4    4   13    5
 0.001183561000721725    4    4   13   10
 0.317554978210843    4    4   13   13
 0.4338516605711482    4    4   14   14
 -0.04350033320578525    4    4   15    1
 0.02075079934689758    4    4   15    4
 -0.0006443145296639207    4    4   15    9
 0.3052191037381732    4    4   15   15
 -0.04166635413362455    4    4   16    2
 0.5153943473339295    4    4   16   16
 -0.1568544647146364    4    4   17   14
 0.5049188766847186    4    4   17   17
 -0.01415207107493399    4    4   18    2
 -0.1517991455079238    4    4   18   16
 0.3981142707968354    4    4   18   18
 0.01488806808658879    4    4   19    3
 -7.748164569903183e-05    4    4   19   11
 0.2895179941266111    4    4   19   19
 -0.00909882260798036    4    4   20    5
 -0.01119987926031349    4    4   20   10
 0.02732381389447421    4    4   20   13
 0.333637164299675    4    4   20   20
 -0.01420575060879556    4    4   21    1
 0.0007712957413404909    4    4   21    4
 0.00584683307288851    4    4   21    9
 0.03039977106283434    4    4   21   15
 0.3516628993048921    4    4   21   21
 0.01507721900363227    4    4   22    6
 -0.0106950409688105    4    4   22   12
 0.2700529068457563    4    4   22   22
 9.854992823604764e-06    4    4   23    1
 0.1461583807569206    4    4   23    4
 -0.0003312039227438643    4    4   23    9
 0.02417822591941432    4    4   23   15
 0.003311319216479858    4    4   23   21
 0.5230128016276345    4    4   23   23
 0.1370140503037038    4    4   24    7
 0.5058526663149285    4    4   24   24
 -0.1346990100057013    4    4   25    8
 0.5108916036552626    4    4   25   25
 -0.001386561723940621    4    4   26    5
 0.1356012176329795    4    4   26   10
 0.01428221019136341    4    4   26   13
 0.01445878781849405    4    4   26   20
 0.5022087687726927    4    4   26   26
 0.1347198997060287    4    4   27    3
 -0.01931641467947959    4    4   27   11
 0.02274237613158366    4    4   27   19
 0.5052447443573792    4    4   27   27
 -0.007572212804913572    4    4   28    1
 0.000355654943148321    4    4   28    4
 -0.1368609620515173    4    4   28    9