 &FCI NORB=  32,NELEC=32,MS2=0,
  ORBSYM=1,1,1,1,1,1,1,1,1,1,1,1,1,1,1,1,1,1,1,1,1,1,1,1,1,1,1,1,1,1,1,1,
  ISYM=1,
 &END
 0.5665768235594487    1    1    1    1
 0.5612012836630123    1    1    2    2
 0.5466980094373337    1    1    3    3
 0.2779201339427259    1    1    4    4
 0.277497265657526    1    1    5    5
 0.269970768739144    1    1    6    6
 0.2701140947880081    1    1    7    7
 -0.001028937939154331    1    1    8    5
 0.2699675921822354    1    1    8    8
 -0.001051851043091961    1    1    9    1
 0.2700251970463442    1    1    9    9
 -0.0006278215266372394    1    1   10    1
 -0.0005900654195893431    1    1   10    9
 0.2774621748482544    1    1   10   10
 0.00525977366459737    1    1   11    3
 0.2766199757820601    1    1   11   11
 0.001736791188951529    1    1   12    6
 0.5553829417108271    1    1   12   12
 0.3810590357370384    1    1   13   13
 -0.04310093205929412    1    1   14    1
 0.001436530427618932    1    1   14    9
 0.0004462910205746164    1    1   14   10
 0.593847452844391    1    1   14   14
 -0.01383738148386249    1    1   15    5
 -0.001512555559807833    1    1   15    8
 0.5280320933673633    1    1   15   15
 -0.01687901110259129    1    1   16    2
 0.2823060841466458    1    1   16   16
 0.1302643256144895    1    1   17   13
 0.4511854086991233    1    1   17   17
 0.02790102013588272    1    1   18    2
 0.01450277925551665    1    1   18   16
 0.6363972440029935    1    1   18   18
 0.1038004785355967    1    1   19    3
 0.01615685344440514    1    1   19   11
 0.4946966918206277    1    1   19   19
 0.01265575319949585    1    1   20    5
 -0.001024701142555385    1    1   20    8
 0.1109278095973127    1    1   20   15
 0.4877903053979055    1    1   20   20
 0.007400340235830182    1    1   21    6
 -0.01388758556045395    1    1   21   12
 0.2621625353222449    1    1   21   21
 -0.001335540080690016    1    1   22    4
 0.282371263141096    1    1   22   22
 0.006764509621573296    1    1   23    7
 0.2633580432075892    1    1   23   23
 0.00200956808285876    1    1   24    5
 0.00706697016255332    1    1   24    8
 -0.001975135915486717    1    1   24   15
 -0.0004811788992874166    1    1   24   20
 0.262770106313187    1    1   24   24
 0.0003269757021222725    1    1   25    1
 -0.006981710554118153    1    1   25    9
 -0.001087561896468342    1    1   25   10
 -0.01000458686869675    1    1   25   14
 0.2634057731050604    1    1   25   25
 -0.001726284717341095    1    1   26    1
 0.0006678081781380145    1    1   26    9
 0.001545720883433748    1    1   26   10
 -0.02058467944557602    1    1   26   14
 0.00288709229801391    1    1   26   25
 0.2767207110386992    1    1   26   26
 -0.001104325385444662    1    1   27    5
 -0.001947820909229743    1    1   27    8
 -0.02546227056077601    1    1   27   15
 0.03741552743019846    1    1   27   20
 0.004534429757001185    1    1   27   24
 0.2782799254205843    1    1   27   27
 -0.09246729680880025    1    1   28    1
 0.002105349988057283    1    1   28    9
 0.01269907442104297    1    1   28   10
 -0.03014975088407475    1    1   28   14
 0.00185426013640147    1    1   28   25
 -0.02729263443232647    1    1   28   26
 0.4558525620481784    1    1   28   28
 0.03741861714038234    1    1   29    2
 -0.008893667078837817    1    1   29   16
 0.01230397408007367    1    1   29   18
 0.3089828275267634    1    1   29   29
 0.001847841739142768    1    1   30    3
 -0.004765882709745245    1    1   30   11
 0.003448214955087436    1    1   30   19
 0.2667154603267405    1    1   30   30
 -0.05559870204029384    1    1   31   13
 -0.09478382904133639    1    1   31   17
 0.3838329189797092    1    1   31   31
 0.005514616266712962    1    1   32    6
 0.1165742135113918    1    1   32   12
 -0.008435661476926558    1    1   32   21
 0.4651106245412434    1    1   32   32
 0.2304371617173903    2    1    2    1
 0.0003591585516726956    2    1    6    3
 0.003504324742077014    2    1    7    4
 0.0006204106962254263    2    1    9    2
 -0.002454090912349431    2    1   10    2
 0.00315934625884309    2    1   11    6
 0.21138266047416    2    1   12    3
 0.007773139919541124    2    1   12   11
 -0.000573348605727388    2    1   13    5
 -0.005141352812888481    2    1   13    8
 0.08517559364994219    2    1   14    2
 0.123259476327944    2    1   15   13
 -0.01521846704461047    2    1   16    1
 0.003624278847235849    2    1   16    9
 0.001543108116309826    2    1   16   10
 -0.01549168432043111    2    1   16   14
 0.0002899405287867625    2    1   17    5
 -0.00123469285830634    2    1   17    8
 0.1559189395503988    2    1   17   15
 -0.002425052963232624    2    1   18    1
 0.000120703160952018    2    1   18    9
 -0.002288147365618826    2    1   18   10
 -0.2129970579235664    2    1   18   14
 0.005113910259526732    2    1   19    6
 0.1212699330906304    2    1   19   12
 0.06723215888692752    2    1   20   13
 0.1163833001152984    2    1   20   17
 -0.008410898274703543    2    1   21    3
 -0.002830257032762988    2    1   21   11
 -0.01170293087323176    2    1   21   19
 -0.003707895470683847    2    1   22    7
 -0.003622016377558257    2    1   23    4
 0.008140142762496284    2    1   23   22
 0.006331733176560602    2    1   24   13
 0.002902247550853399    2    1   24   17
 -0.0005097803264573153    2    1   25    2
 0.003910353598689834    2    1   25   16
 0.01061598346001313    2    1   25   18
 -0.0007372447722072836    2    1   26    2
 -0.0004466412042006288    2    1   26   16
 0.02070223477897345    2    1   26   18
 0.006362975854570514    2    1   27   13
 0.007872621468694069    2    1   27   17
 -0.09078737330309339    2    1   28    2
 0.02276118805475464    2    1   28   16
 0.01528207393536452    2    1   28   18
 0.0273194296181942    2    1   29    1
 -0.003927628019947356    2    1   29    9
 -0.00172237979304237    2    1   29   10
 0.0041590443182019    2    1   29   14
 -0.007981184685158809    2    1   29   25
 0.003399883058744658    2    1   29   26
 -0.06718077327228088    2    1   29   28
 0.002075916780615923    2    1   30    6
 0.003413940022068968    2    1   30   12
 -0.004426480311054869    2    1   30   21
 0.001869722733945861    2    1   31    5
 -0.003925443519670801    2    1   31    8
 -0.06412699634563712    2    1   31   15
 -0.1240493055510171    2    1   31   20
 0.01064591642504661    2    1   31   24
 -0.001172806443174285    2    1   31   27
 0.07226045218344491    2    1   32    3
 0.007139331691562621    2    1   32   11
 0.1587494272214145    2    1   32   19
 -0.007803693633725172    2    1   32   30
 0.5612012836630119    2    2    1    1
 0.5719254078325494    2    2    2    2
 0.538440303255997    2    2    3    3
 0.2685787295210996    2    2    4    4
 0.2681532145004167    2    2    5    5
 0.2622579860426252    2    2    6    6
 0.2624098934258928    2    2    7    7
 -0.001278777131182843    2    2    8    5
 0.2622225285205704    2    2    8    8
 -0.0008095521810774762    2    2    9    1
 0.2622848855163953    2    2    9    9
 -0.0009705132749601767    2    2   10    1
 -0.0008501141319004222    2    2   10    9
 0.268081280498465    2    2   10   10
 0.005979292276596636    2    2   11    3
 0.2674052328568192    2    2   11   11
 0.001783591849479177    2    2   12    6
 0.5573837617923207    2    2   12   12
 0.3757940325644883    2    2   13   13
 -0.003957445950137879    2    2   14    1
 0.00119734552521715    2    2   14    9
 6.73890388934624e-05    2    2   14   10
 0.5721816477308085    2    2   14   14
 -0.01145089888860174    2    2   15    5
 -0.002134604971037042    2    2   15    8
 0.5177370564504568    2    2   15   15
 -0.01983592826817696    2    2   16    2
 0.2741119815286245    2    2   16   16
 0.1348489080379346    2    2   17   13
 0.4482684176660158    2    2   17   17
 -0.001505640072347854    2    2   18    2
 0.0170130800662683    2    2   18   16
 0.6202265898176623    2    2   18   18
 0.1151651515230856    2    2   19    3
 0.01601974565815451    2    2   19   11
 0.4912212226085741    2    2   19   19
 0.01088907432985987    2    2   20    5
 -0.0005410010674036549    2    2   20    8
 0.1208088433242099    2    2   20   15
 0.4848591003657915    2    2   20   20
 0.005588213217093832    2    2   21    6
 -0.01446569848834026    2    2   21   12
 0.2558582068395258    2    2   21   21
 -0.001891796706119158    2    2   22    4
 0.273029479438247    2    2   22   22
 0.004956253801915442    2    2   23    7
 0.2570428580826197    2    2   23   23
 0.002126781218936423    2    2   24    5
 0.005321950747221625    2    2   24    8
 -0.0003209152508592502    2    2   24   15
 -0.001620329428888011    2    2   24   20
 0.256299705278403    2    2   24   24
 -0.0005047097496396337    2    2   25    1
 -0.005222652877723441    2    2   25    9
 -0.001212521862822823    2    2   25   10
 -0.01000600827003804    2    2   25   14
 0.256949033610518    2    2   25   25
 -0.002782326271442253    2    2   26    1
 0.0008819601495355112    2    2   26    9
 0.0008802444829414467    2    2   26   10
 -0.01956809993576344    2    2   26   14
 0.003234683015160267    2    2   26   25
 0.2676340274873854    2    2   26   26
 -0.0004099929336058349    2    2   27    5
 -0.002099886636570017    2    2   27    8
 -0.01857086121190805    2    2   27   15
 0.0343718639598394    2    2   27   20
 0.004803081980238576    2    2   27   24
 0.2692033477377875    2    2   27   27
 -0.09983296402173084    2    2   28    1
 0.002676692142471026    2    2   28    9
 0.01103536162142524    2    2   28   10
 -0.03870790855262151    2    2   28   14
 0.00372104337816655    2    2   28   25
 -0.02250232816017977    2    2   28   26
 0.4571945777937288    2    2   28   28
 0.03982086909881712    2    2   29    2
 -0.01084645504697286    2    2   29   16
 0.005306824146170675    2    2   29   18
 0.3022606456754814    2    2   29   29
 0.001749136091073617    2    2   30    3
 -0.003807822563539728    2    2   30   11
 0.002478784142999315    2    2   30   19
 0.258487209447399    2    2   30   30
 -0.05631564630716036    2    2   31   13
 -0.09812376111252957    2    2   31   17
 0.3799240457725371    2    2   31   31
 0.005536335825372827    2    2   32    6
 0.1175378022611017    2    2   32   12
 -0.008482658341231339    2    2   32   21
 0.4670642708108842    2    2   32   32
 0.08323212642216386    3    1    3    1
 0.0008191712452544968    3    1    5    4
 9.492727132704584e-06    3    1    6    2
 -0.00183237973594598    3    1    8    4
 -0.002277264066373054    3    1    9    3
 -0.002082560977188411    3    1   10    3
 0.001617741946397222    3    1   11    1
 0.001608786551066631    3    1   11    9
 -0.0009662516947494784    3    1   11   10
 0.08370090172276234    3    1   12    2
 -0.002964711750076557    3    1   13    7
 -0.0129049307795461    3    1   14    3
 0.0007962342885713232    3    1   14   11
 -0.005863222045012864    3    1   15    4
 -0.001978500229153259    3    1   16    6
 -0.005576314299027496    3    1   16   12
 -0.0007345120899000549    3    1   17    7
 9.512123792288965e-05    3    1   18    6
 0.02280953121498136    3    1   18   12
 0.01854449233062726    3    1   19    1
 0.002237536414998455    3    1   19    9
 -0.0003660351972647062    3    1   19   10
 0.01402903800733027    3    1   19   14
 0.005424746270029746    3    1   20    4
 -0.003681166430023587    3    1   21    2
 0.00209157684171828    3    1   21   16
 -0.0006133825181270861    3    1   21   18
 -0.0005231827305126153    3    1   22    5
 0.001883914019741095    3    1   22    8
 0.01478426272094397    3    1   22   15
 -0.01116777296533681    3    1   22   20
 0.005239540936210884    3    1   23   13
 0.003691697658379733    3    1   23   17
 0.001841103712057833    3    1   24    4
 -0.004159470367613459    3    1   24   22
 -0.005001701466766026    3    1   25    3
 0.001355237753407608    3    1   25   11
 0.006079631493324206    3    1   25   19
 0.004553938225616776    3    1   26    3
 0.0009707121901096094    3    1   26   11
 0.00116958069024708    3    1   26   19
 0.0007268996648919967    3    1   27    4
 -0.001500407317794201    3    1   27   22
 -0.01138966153715949    3    1   28    3
 -0.00558263962391272    3    1   28   11
 -0.05775102742483931    3    1   28   19
 0.002209257000121684    3    1   29    6
 0.01111027567951173    3    1   29   12
 -0.004724747719412343    3    1   29   21
 0.002139818484748903    3    1   30    1
 0.001003183934892865    3    1   30    9
 -0.0008193762587860871    3    1   30   10
 -0.0004740619277834297    3    1   30   14
 0.001955856272814897    3    1   30   25
 0.001801191174902769    3    1   30   26
 -0.003402402354517141    3    1   30   28
 -0.002464475049963492    3    1   31    7
 0.005252085310389905    3    1   31   23
 0.01572458211568556    3    1   32    2
 -0.003785842865066493    3    1   32   16
 0.01400103885863464    3    1   32   18
 0.01888345470379395    3    1   32   29
 0.06475910056469111    3    2    3    2
 0.0002606391774575399    3    2    6    1
 -0.000750045792024377    3    2    7    5
 -4.502015134671647e-05    3    2    8    7
 2.26812962265007e-05    3    2    9    6
 0.0006669078494882311    3    2   10    6
 0.002319537759923728    3    2   11    2
 0.06633250060579512    3    2   12    1
 -0.000851711826774985    3    2   12    9
 -0.001786312163345622    3    2   12   10
 -0.002167521447890034    3    2   13    4
 6.814703952508975e-07    3    2   14    6
 0.00847112596633545    3    2   14   12
 -0.001632264701450503    3    2   15    7
 -0.00471716861848801    3    2   16    3
 -0.001233285543585312    3    2   16   11
 -0.001223987502984372    3    2   17    4
 0.01533505901560117    3    2   18    3
 0.0001535973896797185    3    2   18   11
 0.03154622769595031    3    2   19    2
 -0.004478937645897476    3    2   19   16
 0.001169321359958089    3    2   19   18
 0.001190783826291007    3    2   20    7
 -0.003289791276472463    3    2   21    1
 2.267392200865547e-05    3    2   21    9
 -0.0005187100423855823    3    2   21   10
 -0.0006877987503489305    3    2   21   14
 0.004707185408496191    3    2   22   13
 0.004193422051139562    3    2   22   17
 0.0007649110053224359    3    2   23    5
 7.246602019024762e-05    3    2   23    8
 0.004060963271763684    3    2   23   15
 -0.002241568865778862    3    2   23   20
 6.130434081383938e-05    3    2   24    7
 -0.000143804966702614    3    2   24   23
 2.784090298084905e-05    3    2   25    6
 -0.00200591488776971    3    2   25   12
 7.57377012648855e-05    3    2   25   21
 -0.0005893784450067452    3    2   26    6
 0.003394633727077017    3    2   26   12
 0.001143538037295879    3    2   26   21
 -0.0007565136973303028    3    2   27    7
 0.001623321668223    3    2   27   23
 -0.001752944863150012    3    2   28    6
 -0.02333545117929871    3    2   28   12
 0.003327562709588373    3    2   28   21
 0.009987514477508721    3    2   29    3
 0.001825394389577095    3    2   29   11
 0.01502264272510283    3    2   29   19
 0.001878779451628093    3    2   30    2
 -0.001165605963698702    3    2   30   16
 0.0003949706998576013    3    2   30   18
 0.001816761231755008    3    2   30   29
 -0.001188191148948639    3    2   31    4
 0.002204019089846579    3    2   31   22
 0.01662008493346322    3    2   32    1
 0.0001414740329199686    3    2   32    9
 -0.0003790185820135549    3    2   32   10
 -0.006035999929863888    3    2   32   14
 0.001125313946969933    3    2   32   25
 0.00150633821828096    3    2   32   26
 -0.04093667674975561    3    2   32   28
 0.546698009437334    3    3    1    1
 0.5384403032559966    3    3    2    2
 0.5608597431901385    3    3    3    3
 0.2719541386716691    3    3    4    4
 0.2703163849003087    3    3    5    5
 0.2640815602958589    3    3    6    6
 0.264234424033123    3    3    7    7
 -0.0004083560459196597    3    3    8    5
 0.2641262799317938    3    3    8    8
 -0.001689784728626779    3    3    9    1
 0.2641780263335324    3    3    9    9
 -0.001251643648906293    3    3   10    1
 -1.877096377530415e-05    3    3   10    9
 0.270287577027619    3    3   10   10
 0.005604227282143742    3    3   11    3
 0.2705740968073403    3    3   11   11
 0.001851993044370353    3    3   12    6
 0.5665865130542405    3    3   12   12
 0.3651247033281622    3    3   13   13
 -0.05234373735394338    3    3   14    1
 0.001512932286414712    3    3   14    9
 0.0006886858104824672    3    3   14   10
 0.5623716603937817    3    3   14   14
 -0.01285746313087524    3    3   15    5
 -0.0005048209553721421    3    3   15    8
 0.5032853421936676    3    3   15   15
 -0.01575811317890232    3    3   16    2
 0.2743742259847348    3    3   16   16
 0.1197106159154776    3    3   17   13
 0.4296239868403995    3    3   17   17
 0.04213360901053615    3    3   18    2
 0.01191130681527877    3    3   18   16
 0.6067352521620138    3    3   18   18
 0.09998659073227271    3    3   19    3
 0.01693129813068068    3    3   19   11
 0.5089450145459279    3    3   19   19
 0.01161198374234622    3    3   20    5
 -0.001939463741087731    3    3   20    8
 0.09909474152977099    3    3   20   15
 0.4685221030516896    3    3   20   20
 0.005778931254783129    3    3   21    6
 -0.0149628806195043    3    3   21   12
 0.2575649640020473    3    3   21   21
 -0.003551155702045315    3    3   22    4
 0.2787468025310804    3    3   22   22
 0.005139555811986219    3    3   23    7
 0.258740911989385    3    3   23   23
 0.001327097190325134    3    3   24    5
 0.005404270147501973    3    3   24    8
 -0.0038561280447778    3    3   24   15
 0.001601298038990148    3    3   24   20
 0.2582014010601311    3    3   24   24
 -0.0009874363796284842    3    3   25    1
 -0.005310816972219346    3    3   25    9
 -0.0005195788059155107    3    3   25   10
 -0.008809983583462145    3    3   25   14
 0.2588734764261915    3    3   25   25
 0.0006383498284384074    3    3   26    1
 0.0001356445050228753    3    3   26    9
 0.0006678036096615942    3    3   26   10
 -0.01953035761246225    3    3   26   14
 0.001664494223034723    3    3   26   25
 0.2700834945173347    3    3   26   26
 -0.000307204068474896    3    3   27    5
 -0.001300119869482834    3    3   27    8
 -0.02405918840336404    3    3   27   15
 0.03437228197672872    3    3   27   20
 0.003122807447653331    3    3   27   24
 0.2713779536150108    3    3   27   27
 -0.08566622989099738    3    3   28    1
 0.0008582833508491508    3    3   28    9
 0.01181046178829985    3    3   28   10
 -0.02526236479064118    3    3   28   14
 -0.00102282888704838    3    3   28   25
 -0.02594636717988079    3    3   28   26
 0.4434694578947687    3    3   28   28
 0.03655839309011651    3    3   29    2
 -0.00858346928048959    3    3   29   16
 0.01523397744159676    3    3   29   18
 0.2998790391663935    3    3   29   29
 0.003646704691555668    3    3   30    3
 -0.002780047106923639    3    3   30   11
 0.001941174637482254    3    3   30   19
 0.2627562970938719    3    3   30   30
 -0.05114028109109518    3    3   31   13
 -0.0880572643594312    3    3   31   17
 0.3694715011173176    3    3   31   31
 0.005658431713443192    3    3   32    6
 0.1176547351276557    3    3   32   12
 -0.00846803947459087    3    3   32   21
 0.4749090715235146    3    3   32   32
 0.0006371674104142553    4    1    4    1
 6.231882368277635e-05    4    1    5    3
 0.0001544087675696801    4    1    7    2
 -0.0001646238299494811    4    1    8    3
 0.00046406509751133    4    1    9    4
 -0.0001887910114058893    4    1   10    4
 0.0002217155900781969    4    1   11    5
 -0.0004722716561087049    4    1   11    8
 -0.0001743883255008635    4    1   13    6
 -0.0009517966108602022    4    1   13   12
 -0.0002101802924023752    4    1   14    4
 -0.00175534907610154    4    1   15    3
 0.0009025173796341323    4    1   15   11
 -0.0004473308389095262    4    1   16    7
 0.0005938253363092464    4    1   17    6
 -0.001042498919524774    4    1   17   12
 8.246525430725369e-05    4    1   18    7
 -1.784487267000428e-05    4    1   19    5
 0.0003203455118380727    4    1   19    8
 0.000735004303331509    4    1   19   15
 0.0003824104786593547    4    1   20    3
 -0.001252318531344707    4    1   20   11
 -0.001440056551605061    4    1   20   19
 -0.0007317716193325013    4    1   21   13
 0.0004634449033777256    4    1   21   17
 -0.0004704562858897527    4    1   22    1
 0.0008709658968237061    4    1   22    9
 -0.000496208397159074    4    1   22   10
 0.000175609137131312    4    1   22   14
 -0.0002497392565293513    4    1   23    2
 -0.0008952993479982888    4    1   23   16
 -2.227790116384385e-05    4    1   23   18
 0.0001447264282977    4    1   24    3
 -0.0008795139521496932    4    1   24   11
 -0.0001624122049190951    4    1   24   19
 -0.0008744474557094995    4    1   25    4
 7.902402904325809e-05    4    1   25   22
 -0.0004802136270886927    4    1   26    4
 7.548527387549287e-05    4    1   26   22
 0.000224145148305287    4    1   27    3
 -0.0004166632951192464    4    1   27   11
 -0.0002253064286020218    4    1   27   19
 0.001159465762242676    4    1   28    4
 -0.0008622557135068171    4    1   28   22
 -0.0009464460513404123    4    1   29    7
 0.0001512567485788869    4    1   29   23
 -0.0004926597784123608    4    1   30    5
 0.0007885180209482085    4    1   30    8
 0.0003010367168290869    4    1   30   15
 -0.0005347650146151318    4    1   30   20
 -3.495008881480713e-05    4    1   30   24
 3.830447747592177e-05    4    1   30   27
 0.0008815926780721794    4    1   31    6
 -3.405849169182936e-06    4    1   31   12
 -0.0001554210297057193    4    1   31   21
 0.0003144424942154934    4    1   32   13
 0.0001893328433605804    4    1   32   17
 0.0007770297801902703    4    1   32   31
 0.0001563001808444558    4    2    4    2
 0.0004461041262308614    4    2    6    5
 8.383124547379899e-05    4    2    7    1
 2.516533817817048e-05    4    2    8    6
 -2.257767752477437e-05    4    2    9    7
 -0.0004371432716218183    4    2   10    7
 9.143973471321509e-06    4    2   12    5
 -2.05673647431626e-06    4    2   12    8
 -0.0007222308343590388    4    2   13    3
 0.0006507109181918593    4    2   13   11
 5.216241116433571e-06    4    2   14    7
 0.0001732632711744833    4    2   15    6
 -0.001061094880807568    4    2   15   12
 0.0007714098906059455    4    2   16    4
 -0.000787978063715668    4    2   17    3
 -0.0004014232388177682    4    2   17   11
 1.080186920418892e-05    4    2   18    4
 0.0001121945989229571    4    2   19   13
 -3.302570815776575e-05    4    2   19   17
 -0.0002672665695290526    4    2   20    6
 -0.0001308732595716983    4    2   20   12
 -6.747452531948737e-05    4    2   21    5
 -1.604901832157013e-05    4    2   21    8
 -0.0003039018608905907    4    2   21   15
 0.0005372843309995667    4    2   21   20
 -0.0003190415447405048    4    2   22    2
 -0.0001194532757501546    4    2   22   16
 -0.0001219843989379867    4    2   22   18
 -0.0002358592738713379    4    2   23    1
 1.092901927588546e-05    4    2   23    9
 3.838379093017579e-05    4    2   23   10
 -3.259711069779753e-05    4    2   23   14
 -9.504521077681638e-06    4    2   24    6
 1.655858029997204e-05    4    2   24   12
 4.287805136620038e-05    4    2   24   21
 -6.53182729280556e-06    4    2   25    7
 4.087429438617358e-05    4    2   25   23
 4.450141615508546e-05    4    2   26    7
 -0.0004307805493178926    4    2   26   23
 5.607268656944373e-05    4    2   27    6
 -1.744469123270148e-05    4    2   27   12
 -0.0004742329376457482    4    2   27   21
 0.0002566588457750046    4    2   28    7
 -0.0005307675546381226    4    2   28   23
 -0.000125644927209264    4    2   29    4
 0.0008128636872661202    4    2   29   22
 0.0001801217399072761    4    2   30   13
 0.0001864475628699403    4    2   30   17
 -2.880734111401901e-05    4    2   31    3
 0.0001664233001893286    4    2   31   11
 0.0005858208017142958    4    2   31   19
 0.0006321478228816426    4    2   31   30
 -3.47713059492355e-06    4    2   32    5
 6.716374743960208e-06    4    2   32    8
 0.0002868685510669151    4    2   32   15
 -0.0006472720363593671    4    2   32   20
 -6.985227636017798e-06    4    2   32   24
 6.540946535458426e-06    4    2   32   27
 0.0008357042344259221    4    3    4    3
 0.0003506823301538887    4    3    5    1
 -0.003146693417984243    4    3    7    6
 -2.360643761741007e-05    4    3    8    1
 -2.721134601110181e-05    4    3    9    5
 0.003142832858995713    4    3    9    8
 0.003325805193129662    4    3   10    5
 -3.433976354977088e-05    4    3   10    8
 -0.003247667866512977    4    3   11    4
 0.0002613258613492486    4    3   12    7
 -0.003361956398357136    4    3   13    2
 -0.0004506368295186885    4    3   14    5
 0.0001053989382010742    4    3   14    8
 -0.005504609544511715    4    3   15    1
 8.968934706219422e-05    4    3   15    9
 -0.0005597943605212966    4    3   15   10
 0.001509322037504485    4    3   15   14
 -0.003125615391360167    4    3   16   13
 -0.003522693383383058    4    3   17    2
 0.001389799856915197    4    3   17   16
 -0.0009752586888106108    4    3   18   13
 -0.001380408858196796    4    3   18   17
 -0.0008883188226882553    4    3   19    4
 0.0001933828032594474    4    3   20    1
 -0.0002010518693548335    4    3   20    9
 0.0007878078540074183    4    3   20   10
 -0.0008739029485687673    4    3   20   14
 0.001491500404172534    4    3   21    7
 -0.001866146054900488    4    3   22    3
 0.002191841018358596    4    3   22   11
 0.002143518719442267    4    3   22   19
 0.001475922916133748    4    3   23    6
 -0.0007140627893405506    4    3   23   12
 -0.003370506705195194    4    3   23   21
 6.862364203253168e-05    4    3   24    1
 -0.001509011198958787    4    3   24    9
 -0.0001314768791582119    4    3   24   10
 -0.0003718032308093367    4    3   24   14
 0.0001263001824971703    4    3   25    5
 0.001506718594173923    4    3   25    8
 5.380498234775735e-05    4    3   25   15
 -0.0004242288974685221    4    3   25   20
 -0.003430240185024636    4    3   25   24
 -0.001672112870266666    4    3   26    5
 -0.0001300115262470032    4    3   26    8
 0.001080019306959177    4    3   26   15
 -0.0009567710135519617    4    3   26   20
 7.758048677776276e-06    4    3   26   24
 0.0006883523083653371    4    3   27    1
 0.0001436864482533659    4    3   27    9
 0.001567506102040875    4    3   27   10
 -0.001230371528613774    4    3   27   14
 2.118167928989727e-05    4    3   27   25
 -0.003589734919570864    4    3   27   26
 0.0004698935958504151    4    3   28    5
 -0.0001758132917709507    4    3   28    8
 -0.003217939509892927    4    3   28   15
 0.005622532728550277    4    3   28   20
 0.0002045177786205562    4    3   28   24
 0.0007144079113547405    4    3   28   27
 0.002425381042290149    4    3   29   13
 0.0008886622110062409    4    3   29   17
 -0.002154505070113648    4    3   30    4
 0.003635159278888338    4    3   30   22
 0.0001149450546689548    4    3   31    2
 -0.001856017760991078    4    3   31   16
 0.000447568176125252    4    3   31   18
 0.004185713578932688    4    3   31   29
 -0.0001443064799735359    4    3   32    7
 0.0006577538617936551    4    3   32   23
 0.2779201339427256    4    4    1    1
 0.2685787295210995    4    4    2    2
 0.271954138671669    4    4    3    3
 0.5956562440570039    4    4    4    4
 0.5646449506801876    4    4    5    5
 0.5564594846627282    4    4    6    6
 0.5555691616239662    4    4    7    7
 0.01056656582653772    4    4    8    5
 0.5566053869799391    4    4    8    8
 0.0008121499252168636    4    4    9    1
 0.5565977440155779    4    4    9    9
 0.002454650033545367    4    4   10    1
 0.01018661270001065    4    4   10    9
 0.5675576917641119    4    4   10   10
 0.001107910338944269    4    4   11    3
 0.5984391771289957    4    4   11   11
 0.005830417226187536    4    4   12    6
 0.2661501732829907    4    4   12   12
 0.4410691709893978    4    4   13   13
 -0.02014635371605983    4    4   14    1
 -0.004310544037312531    4    4   14    9
 0.006076690658988399    4    4   14   10
 0.2754900955041345    4    4   14   14
 -0.0004589575641307986    4    4   15    5
 0.001706727171945239    4    4   15    8
 0.3012231070132237    4    4   15   15
 0.01156071104579494    4    4   16    2
 0.5517843508105084    4    4   16   16
 -0.147488023996705    4    4   17   13
 0.4301467320614069    4    4   17   17
 0.01437204848972772    4    4   18    2
 -0.01640325540354227    4    4   18   16
 0.2783555210199662    4    4   18   18
 0.001707448835688215    4    4   19    3
 -0.01904846345151084    4    4   19   11
 0.2695243122934491    4    4   19   19
 0.005185523633192529    4    4   20    5
 5.347501463701457e-06    4    4   20    8
 -0.02625230201940154    4    4   20   15
 0.3171031530758162    4    4   20   20
 0.1342742313005063    4    4   21    6
 0.005951530340714098    4    4   21   12
 0.4785409836042931    4    4   21   21
 0.147354187585828    4    4   22    4
 0.5009149721865338    4    4   22   22
 0.1350190049284433    4    4   23    7
 0.4750406078469048    4    4   23   23
 0.003732380505507336    4    4   24    5
 0.1351866496634871    4    4   24    8
 -0.002223836471921592    4    4   24   15
 0.002585367783759811    4    4   24   20
 0.476889255824931    4    4   24   24
 0.0002356659629895127    4    4   25    1
 -0.1352486665830016    4    4   25    9
 -0.004605728911982345    4    4   25   10
 0.003176863554442457    4    4   25   14
 0.4762882425330016    4    4   25   25
 -0.005326310882627569    4    4   26    1
 0.004249849300694693    4    4   26    9
 0.1372040240843261    4    4   26   10
 0.007504303076572523    4    4   26   14